21
Properties=species:S:1:pos:R:3:forces:R:3 energy=-17592.016941965194 pbc="F F F"
C 2.134488814122 -0.98436105298 -0.195217899792 -1.6816152647342648 -0.3230234117133429 1.3982203666907003
C 0.762643814122 0.95941394702 -1.679928899792 -2.0277370856872046 1.2177854205028462 -0.10541142347916611
C 2.660344814122 -0.40792605298 -1.307303899792 3.812887271748998 -1.0876779963352226 -0.16479000165978025
C 1.910316814122 0.39396594702 -2.147019899792 -0.2129525233247709 0.19248218633059055 0.7351341103302621
C -3.030190185878 1.49540494702 0.719662100208 -1.6091065877528823 -1.3147543196099618 -0.9203220427774433
C 0.849424814122 -0.55087105298 0.284375100208 0.27234789597306036 0.7762993828765324 -0.5836379456561097
C 0.238446814122 0.47350594702 -0.404421899792 -0.4227626841124548 3.2319565081183037 -1.9029665161567466
O 0.897895814122 -2.27643205298 1.730061100208 -0.9636839762405301 -0.3782659799591634 1.7859004763455986
O -2.383452185878 0.41777894702 -1.462856899792 0.7974171612740656 0.9379343513922409 2.183137305541517
O -0.476201185878 -0.52908705298 2.339259100208 0.6370440358611029 -1.8646923324029954 0.8160245523387207
C 0.392991814122 -1.19023705298 1.537982100208 0.7734279826540305 -0.1099322117660273 -1.2266743901809904
C -2.122985185878 0.95175994702 -0.397704899792 0.3308205065608045 0.16979112526845802 0.35376067136883577
O -0.804666185878 1.28624594702 0.110509100208 -0.9335333175023328 -2.156513514412783 -0.9772938980794551
H -0.493803185878 -1.18679205298 3.095974100208 -0.43992130936472124 1.0654381003827267 -0.6111952486325826
H 2.554734814122 -1.80249705298 0.392131100208 0.649497339746505 0.32021814362248074 -0.10847101085634353
H 0.330689814122 1.85571094702 -2.345263899792 0.27296445436168304 -2.2211429873710813 1.8974060649698588
H 3.803793814122 -0.49371905298 -1.456202899792 -1.8164110081949283 -0.4888246971741454 -0.3974448320023141
H 2.231140814122 0.55718594702 -3.124149899792 0.9939316563944188 0.9156173161200699 -1.9046547990363916
H -2.708930185878 2.48465794702 0.926928100208 0.33676814700382735 1.670473868083109 -0.014143504141858807
H -4.130483185878 1.48216694702 0.431266100208 1.1704718912739718 -0.0483341541782298 0.24570108511986152
H -2.874148185878 1.00320894702 1.699485100208 0.06014541406166533 -0.5048347978257491 -0.4982790202003312
21
Properties=species:S:1:pos:R:3:forces:R:3 energy=-17592.42715128754 pbc="F F F"
C 1.912821873438 -1.346397733195 -0.316999041607 -0.8003307709195586 -0.6938505445441174 1.946346330936821
C 1.340710873438 1.454850266805 -0.786465041607 -0.6680754511431787 -1.648313704523601 -0.4299967039356706
C 2.730549873438 -0.599585733195 -1.098025041607 0.3851878171548165 1.562290883794264 -1.3298033726893264
C 2.364780873438 0.738579266805 -1.463524041607 -0.5048653891640459 -0.37584943653663866 1.3861795255464462
C -3.013985126562 1.977828266805 0.420686958393 -0.2728502235228637 -1.3369007479640729 0.4029473382443073
C 0.768356873438 -0.729696733195 0.215952958393 -1.21251592749878 1.1125160473497449 -0.004245934126953332
C 0.442961873438 0.631759266805 -0.000159041607 0.06007926091244352 0.6715122025041044 0.5399753119352654
O -1.442891126562 -1.485464733195 0.899583958393 0.6456919935017986 0.3494258578431984 -0.10423448488722631
O -1.530749126562 1.291421266805 -1.458611041607 -1.3798205092115876 0.37040369933545747 1.9224514344097479
O 0.368435873438 -2.670519733195 1.716845958393 -1.1274886338254768 3.0820827934226163 -2.0800564953788467
C -0.235861126562 -1.543199733195 0.921176958393 0.4126263086980955 -3.0647361273677336 1.8456198199535583
C -1.789780126562 1.419911266805 -0.268295041607 2.373634387065086 -0.8424560684234336 -0.9810368197616681
O -0.743279126562 1.126903266805 0.687651958393 0.42651687906807306 0.21027820412691825 -2.17024947222631
H -0.501644126562 -2.952043733195 2.012121958393 -0.19837636416979945 -0.9234689147369252 0.6037611046067041
H 2.113600873438 -2.360883733195 0.064783958393 0.1769321518528755 0.21626020473147378 -0.5218465529480613
H 1.166708873438 2.512622266805 -1.058121041607 -0.23765647604998877 -0.4837442821300877 0.3346035004527235
H 3.648867873438 -1.019387733195 -1.469736041607 0.4982578157453564 -0.2572052397860113 -0.5382334347965774
H 2.888140873438 1.202315266805 -2.277878041607 0.707856055673577 0.6266741981833615 -0.27972811572829737
H -3.301888126562 2.838999266805 -0.151068041607 -0.16392584883257663 1.1564643939081982 -0.2044884290800098
H -3.932613126562 1.325244266805 0.400543958393 0.9959668570905096 -0.049016960166596596 -0.14652067714188155
H -2.763794126562 2.169197266805 1.476853958393 -0.11684393263032114 0.31763354067156285 -0.19144387389856576
21
Properties=species:S:1:pos:R:3:forces:R:3 energy=-17592.8076712746 pbc="F F F"
C 1.91537052106 -1.230154430464 -0.381615691078 0.4048301886748214 -0.21274981499025614 0.9016987105888069
C 0.93052952106 0.965003569536 -1.797783691078 1.0956954926525089 0.10657166138588559 -1.4049966409045327
C 2.70541152106 -0.637045430464 -1.438385691078 -0.15809495892008826 -2.0322560038739232 1.9965878162215631
C 2.17482152106 0.369690569536 -2.148231691078 0.0424751235028121 2.86621151068812 -2.267840631389854
C -2.84186947894 1.729416569536 0.698580308922 -1.3277578603887374 0.8560828664364111 -1.6261900710215222
C 0.64553252106 -0.756195430464 -0.025162691078 0.29687056671071316 0.1923374399503221 -0.8455895702355494
C 0.17305652106 0.361233569536 -0.872752691078 -1.9401021989378122 -1.5086797434157366 4.0516367033637755
O 0.17032552106 -2.105904430464 2.103802308922 -0.4718391184696872 1.5180207281555755 -2.914265798352896
O -0.52755447894 1.932493569536 1.326185308922 0.5576550113713651 0.21223838884192786 0.7330595106030294
O -1.49039147894 -1.508517430464 0.627002308922 -0.1346733106868386 -1.4819948693539102 1.5749149449580595
C -0.19071547894 -1.526148430464 1.066231308922 0.4060565697101431 -0.03286231812012083 0.3517047715127852
C -1.38200447894 1.561751569536 0.586423308922 0.8890358144763375 -1.1239400015325987 -1.9597156015824648
O -1.10375547894 0.871950569536 -0.616381691078 -0.34087235855526704 0.399109650140226 0.24059406955549079
H -1.95758247894 -2.166490430464 1.232178308922 0.6303535042910756 1.1569637445187377 -0.8255471914212493
H 2.32019652106 -2.044085430464 0.261499308922 -0.01116322114975248 0.3537172365554316 -0.5315265761811159
H 0.53432752106 1.865416569536 -2.261830691078 0.04681210214527513 0.036748647482402724 -0.3341793406440733
H 3.71974652106 -0.969015430464 -1.640322691078 0.12599986383574677 -0.39771214527822973 -0.04534161902895716
H 2.76204452106 0.825896569536 -3.001102691078 -0.5344824265960768 -0.37798799803718 0.9138843230877557
H -3.05424447894 2.444248569536 1.458769308922 -0.19859064778304777 0.8906944773988503 1.0526850506628103
H -3.32110047894 2.118980569536 -0.263015691078 0.761285548081509 -0.591181805651318 0.8884686105553983
H -3.33969247894 0.807393569536 0.959422308922 -0.1394936838620536 -0.8293316511465018 0.04995852970412647
21
Properties=species:S:1:pos:R:3:forces:R:3 energy=-17592.206591635797 pbc="F F F"
C 2.049970814819 -1.051265288002 -0.379904129206 -1.0639632071249934 -1.5012701869522482 1.2945034843902856
C 0.848624814819 1.105900711998 -1.636864129206 0.07448178312662196 0.33520310584267377 -1.4447851929495528
C 2.463912814819 -0.739831288002 -1.659175129206 1.5297546320175235 1.3516604576154179 -2.5693870811657664
C 1.880210814819 0.441460711998 -2.346428129206 0.2333429886653219 -2.2383399237261483 2.301355129576178
C -3.047942185181 1.265642711998 0.814754870794 -0.693509451725926 -2.1638337215887096 2.14804743912187
C 0.971895814819 -0.369129288002 0.230927870794 -0.14281489091523206 0.036063116508562275 -0.19835619615280684
C 0.297450814819 0.677836711998 -0.452066129206 0.8645739567837226 -1.4479038202401713 2.9083098939499816
O 0.821805814819 -2.077882288002 2.007177870794 1.2513008593918817 1.7566047605817954 -1.435059552828347
O -2.217351185181 0.210324711998 -1.156771129206 0.35525812962155207 0.7819450936631106 0.4848882724880888
O -0.632194185181 -0.467434288002 2.045988870794 -0.22943267713882756 0.3735604442028773 0.441638004334301
C 0.501692814819 -0.984727288002 1.504355870794 -2.0329623340081566 -3.009634550553593 1.617141837791544
C -2.008525185181 0.897307711998 -0.177908129206 0.3219968347868454 -0.9115879789766358 -0.2627376214332493
O -0.772510185181 1.268716711998 0.264673870794 1.0582396698627987 0.5174033487925542 -1.7563616308583498
H -0.873614185181 -1.145497288002 2.728934870794 0.40315024524355386 0.683790498476951 -0.6401595375993503
H 2.266023814819 -2.005921288002 0.200278870794 0.647858320172798 1.176684674223444 -0.9274909386951851
H 0.387197814819 1.992856711998 -2.004519129206 -0.40533377501706 0.9103433801378606 -0.9804069065391907
H 3.368792814819 -1.308056288002 -2.133518129206 -1.8439549077761723 0.927417219070951 0.6837177744888535
H 2.157702814819 0.704045711998 -3.376806129206 0.08110971063704997 0.17485793033891045 0.36103236385440113
H -3.871999185181 1.703602711998 0.282430870794 -1.2506478474107015 -0.37429883556840116 -0.4800722431128536
H -3.261524185181 0.183186711998 1.365202870794 -0.0387926530964265 2.8110846452296148 -1.424354327289039
H -2.849374185181 1.995828711998 1.614997870794 0.8803446143149183 -0.1897496569760429 -0.12146297137176884
21
Properties=species:S:1:pos:R:3:forces:R:3 energy=-17592.173064289756 pbc="F F F"
C 1.868213935055 -1.238316046374 -0.556096581276 -1.2314217564275463 -0.8550404899589644 1.148069415414754
C 1.748504935055 1.409043953626 -0.194899581276 -2.7859129908417906 1.7327573613206115 0.9791456745900361
C 2.946647935055 -0.414605046374 -0.888440581276 1.1554509077856872 -1.8012053887484356 -1.4377507474294549
C 2.942174935055 0.997683953626 -0.662770581276 1.1244323065849708 -2.2210461206323155 -0.5603211410700387
C -2.900933064945 2.147152953626 0.608249418724 1.1692916633571582 -3.9507178297205425 0.7957440342633695
C 0.638899935055 -0.703926046374 -0.019266581276 -0.20908237547800368 -2.064890992746547 0.1512612314900041
C 0.522318935055 0.650952953626 -0.012720581276 1.0497001828625963 2.246736695906293 0.18638987278612362
O -1.370676064945 -1.123299046374 1.278682418724 2.7051070150073264 -2.2785004737521737 -1.4288727052885137
O -2.002749064945 0.445921953626 -0.988678581276 -0.5517543734850869 1.7857455368607809 0.48036341573644037
O -0.255803064945 -2.949003046374 0.250227418724 0.07098933672723487 2.2375078802290873 0.8012880431423083
C -0.425216064945 -1.604970046374 0.614386418724 -1.7712432268269978 1.1640203429046643 -0.36821353628705433
C -1.804097064945 1.325068953626 -0.161535581276 -0.6210036071816603 -2.4692372603191304 0.0008120191086020326
O -0.560854064945 1.448783953626 0.376178418724 0.8677723074231385 0.8401693546190571 0.890222809635711
H -0.875881064945 -3.428235046374 0.801771418724 -0.5632442077430174 -0.3837119511798271 0.2756713559646035
H 1.812315935055 -2.374146046374 -0.518706581276 0.9203612768028074 1.3662762142607607 -0.6655288641756487
H 1.660575935055 2.411764953626 0.177130418724 -0.26752445531356006 1.0920264533906467 -0.12947878165954346
H 3.768285935055 -0.956990046374 -1.439740581276 -0.31586777299288626 0.7555701183037974 0.7851731625642521
H 3.850813935055 1.635231953626 -0.795794581276 -0.850900226409594 -0.4361716626291848 0.14212144808979585
H -2.553358064945 3.005239953626 1.128902418724 0.5092703654648096 1.043602950490106 0.5841126614276765
H -3.671129064945 2.313663953626 -0.068225581276 -1.7088930897908328 0.9694899653827485 -1.8011782412063928
H -3.414306064945 1.375746953626 1.329091418724 1.3044727209891542 1.2266192963783171 -0.8290311273540056
21
Properties=species:S:1:pos:R:3:forces:R:3 energy=-17592.194852497305 pbc="F F F"
C 2.123604195796 -1.082209586203 -0.292763785759 -1.8831592300338917 2.0725625287025182 -1.8151926326909276
C 0.748874195796 1.058119413797 -1.593459785759 -0.9812594465746787 2.2184835651511285 -0.867383888203109
C 2.528069195796 -0.599490586203 -1.582429785759 -2.5819653865405177 0.4801753191782597 2.320503298913697
C 1.800410195796 0.422312413797 -2.228121785759 0.7523905204134868 1.4044122654845823 -0.3163499629472177
C -3.130076804204 1.705813413797 0.472430214241 1.544639333548733 0.16556740125323585 0.3249771963507114
C 0.923098195796 -0.452611586203 0.273434214241 2.078270965491667 -3.587243725269316 2.5682059797099037
C 0.302835195796 0.587070413797 -0.366115785759 -1.6480699192476669 0.5843993581850061 -0.3158204517812104
O 1.079242195796 -2.264978586203 2.047502214241 -1.6619922740748778 4.179290455898975 -1.772994641723249
O -2.295707804204 0.450966413797 -1.392749785759 0.5113131187612655 0.5142709965226612 1.5246023370278532
O -0.621134804204 -0.769888586203 2.313391214241 1.662851263109043 -0.894178427617389 -1.0575747878945205
C 0.513456195796 -1.193228586203 1.634999214241 0.5737011403311353 -2.4889829837535555 0.06857856819995335
C -2.086265804204 1.029439413797 -0.334515785759 0.5764202124876179 -1.4309924709256707 -2.924736436290185
O -0.799815804204 1.219900413797 0.175413214241 -1.0086408862394 0.3094152115156559 1.2470887501211474
H -0.681506804204 -1.577179586203 2.870858214241 -0.4690806819687461 0.6269152703443975 0.31643973166098416
H 2.540299195796 -1.950115586203 0.200052214241 0.3693191531576631 -0.06765197523981242 0.24043732199541684
H 0.267156195796 2.064345413797 -1.979534785759 0.8815822310592336 -2.290715520441784 0.4952379099801776
H 3.375093195796 -0.902791586203 -2.070793785759 2.5629306517898227 -1.4510677777785106 -1.2050955131798171
H 2.159037195796 0.951501413797 -3.144155785759 0.024373082765029357 -0.921614091708211 0.34155695961781224
H -3.875795804204 2.156629413797 -0.140768785759 -0.3531381444048545 1.172986292138212 -0.9173644748837209
H -3.710258804204 1.035025413797 1.037031214241 -0.6469519817151408 -1.7572659110342306 1.1914370111826649
H -2.557401804204 2.305131413797 1.161073214241 -0.30353372196080725 1.1612342199591843 0.5534477247822485
21
Properties=species:S:1:pos:R:3:forces:R:3 energy=-17591.868173414172 pbc="F F F"
C 1.943738026999 -1.121906090297 -0.542401647739 1.8638677897589218 3.6564408639422017 -4.757741645272904
C 0.992916026999 1.354849909703 -1.572690647739 -0.8180063767108995 -1.7487007045040182 1.4996940617271395
C 2.625630026999 -0.531109090297 -1.721317647739 -1.9403052939131469 0.9088271160525699 2.819035666813633
C 2.126065026999 0.722463909703 -2.145913647739 -0.4342556114457774 -0.2601941876646555 -0.6655446064807387
C -3.078245973001 1.819772909703 0.051102352261 1.4380672570532351 -0.03409294167032762 1.6555605752217912
C 0.890397026999 -0.516564090297 0.035057352261 -2.2246183557969363 2.0347892030167114 0.5773304843632838
C 0.360343026999 0.706871909703 -0.452768647739 0.6890488055666727 0.332339400769955 -0.9808263530705518
O 0.175837026999 -2.291286090297 1.488341352261 0.3056745894831392 -0.12880410756474805 -0.679639542283516
O -2.292193973001 -0.556327090297 0.268951352261 0.4894774675819035 0.8177978459989262 -1.1934817638192852
O -0.072196973001 -0.216766090297 2.171466352261 -0.8165240885615714 -0.19270062849125608 2.5635694970633236
C 0.271472026999 -1.103623090297 1.243603352261 -0.016010590992768914 -1.9167816560013256 1.1376931425615529
C -2.064522973001 0.599754909703 0.014143352261 -0.35100661391980903 1.3557491112407605 1.86971311806567
O -0.778196973001 1.231489909703 0.146883352261 -0.3632558612636552 -0.026839277110741626 -1.5266255225152885
H -0.369850973001 -0.786074090297 2.982847352261 0.7088766680329466 1.2890679526266644 -2.184559552540013
H 2.128960026999 -2.062085090297 -0.285943647739 1.4890234565251617 -4.525670585979915 1.6527431145834421
H 0.558177026999 2.232868909703 -2.045553647739 -0.07843424374693062 0.2412670688232393 0.1404537339995867
H 3.591259026999 -0.878599090297 -2.050857647739 0.2101691378519343 -0.6395656669194787 -0.5391145774674115
H 2.431791026999 1.174666909703 -3.102970647739 0.632324302307593 -0.05677992784419216 0.3320335826083504
H -3.653436973001 1.680652909703 1.045300352261 0.08827474528506206 0.035641987185079944 -1.8377482031661359
H -2.391451973001 2.693393909703 0.271847352261 -0.7896341138634946 -0.5874146833044673 -0.43878148474837153
H -3.645462973001 2.048193909703 -0.878194647739 -0.08275306928300927 -0.5543761821899347 0.5562362743564424
21
Properties=species:S:1:pos:R:3:forces:R:3 energy=-17592.630642302123 pbc="F F F"
C 1.781696635343 -1.292135824692 -0.617993039197 0.8465439136692742 1.705043777127233 -0.7884118051470744
C 0.733533635343 1.049157175308 -1.645259039197 0.23735968156363144 1.9253396391205881 -0.30081232595104274
C 2.272568635343 -0.757706824692 -1.850335039197 -0.6196423615640388 0.33275841024912234 0.7847562854165259
C 1.764960635343 0.474519175308 -2.366444039197 -0.590973941694385 -3.0802636935106498 2.3784283381894076
C -3.076725364657 1.535838175308 0.544627960803 0.474413165210797 0.41360767295190765 -1.4687926370094158
C 0.829086635343 -0.592669824692 0.158783960803 0.5246455968099063 -0.8649724112453719 -1.0320965950954908
C 0.314001635343 0.559889175308 -0.437177039197 -1.3252971982343007 0.9459539082010081 2.1693998877528426
O 1.175725635343 -1.650406824692 2.305762960803 1.3998958523441345 -1.4739547550609884 0.5799934746862822
O -2.059207364657 -0.094482824692 -0.769265039197 -0.32977791343288865 -2.2994072059597515 -1.6508175286743592
O -0.653911364657 -0.447901824692 1.943280960803 -0.4604897554460451 -0.0818580145818117 -0.7244610080985177
C 0.503112635343 -1.035886824692 1.544419960803 -1.3490428479514707 1.9438918441417088 -0.0855563536041943
C -1.933718364657 0.817969175308 -0.040590039197 2.0523207838079305 1.7427707380801087 1.3153498851066896
O -0.665240364657 1.372257175308 0.248120960803 -0.2557565643131848 -1.1755406622312234 -1.3056047252239724
H -0.743496364657 -0.547206824692 2.886119960803 0.12301432116117209 -0.44510924802585294 0.8978968265885268
H 2.337184635343 -2.108405824692 -0.207082039197 0.07459115161248006 -0.9695925065538458 0.49572284162097185
H 0.371514635343 2.067844175308 -1.846907039197 -0.22963367842624882 -0.3280772668334307 -0.5418874361241448
H 3.116247635343 -1.267146824692 -2.315964039197 -0.03950343160455471 -0.12941592374481153 -0.31515548327614124
H 1.973663635343 0.755229175308 -3.334701039197 1.0422754002831358 1.2245237260100033 -2.378412705545579
H -3.717797364657 0.802577175308 0.956690960803 -1.116456560336282 -0.7919327368123613 0.8901184179945321
H -2.826977364657 2.362296175308 1.151230960803 0.36049734264520206 1.0373010456949143 1.3027897885425448
H -3.518070364657 1.920319175308 -0.373101039197 -0.8189829562071239 0.36893366293220414 -0.2224471419428016
21
Properties=species:S:1:pos:R:3:forces:R:3 energy=-17592.26194831238 pbc="F F F"
C 1.921796527769 -1.177100089229 -0.296636439719 0.2514775748603981 -3.7513231282778223 0.27258035129502467
C 1.497751527769 1.452593910771 -0.507782439719 -0.9665056626413451 1.095775551357227 0.7916373106255405
C 2.922085527769 -0.399186089229 -0.822308439719 1.4121973240544634 -0.26331289028960003 -1.073299433520535
C 2.749792527769 0.974218910771 -0.897017439719 -1.9241694594978151 0.4364260512374804 0.44277685165991326
C -2.624425472231 2.210924910771 0.694894560281 3.2938230126454333 1.0052182684925373 -0.9957685797607895
C 0.676563527769 -0.720988089229 0.096610560281 -1.4117818540553906 -1.135975140957661 1.5866060553760821
C 0.439788527769 0.599475910771 -0.063168439719 1.7095842390302616 2.1176610282855814 0.00022921753887935762
O -1.497778472231 -1.296233089229 1.237540560281 1.7800114431832321 -0.7059104596618178 0.21983813878898778
O -1.991208472231 0.754322910771 -1.282695439719 0.023896101567928374 0.4366585620581642 0.6709526921399683
O -0.018865472231 -2.873118089229 0.399578560281 -1.7189933280578613 -1.417216777132014 2.104894211397154
C -0.405422472231 -1.614501089229 0.795230560281 0.020980171614862417 0.2059296759509444 -3.011351776923073
C -1.798180472231 1.283864910771 -0.216822439719 -0.27789752676611273 0.6716275243545824 0.019682599537095866
O -0.643191472231 1.153911910771 0.523595560281 -0.4742571013636849 0.9105263904470335 -0.2433444431764787
H -0.637991472231 -3.556410089229 0.819962560281 0.9000340802727808 1.3872297765680524 -0.776874540632758
H 2.046463527769 -2.291583089229 -0.164893439719 0.3316955125671847 1.1778719992916866 -0.3426191692701955
H 1.358640527769 2.546156910771 -0.326237439719 -0.13135180090887805 -0.6309231197326763 -0.5470810504509267
H 3.827217527769 -0.844510089229 -1.260438439719 -0.04980292135738012 -0.14633362159512114 0.47218743490437404
H 3.456193527769 1.715309910771 -1.197780439719 1.053287354881963 0.2787378944494691 -0.3899722042111014
H -2.433684472231 1.670487910771 1.617630560281 -0.3540530750355197 0.636204771162797 1.0240644715855862
H -2.172617472231 3.306159910771 0.629675560281 -0.6229738735413457 -2.2579965017792487 0.4891219748073904
H -3.619901472231 2.271419910771 0.437888560281 -2.8452002112990584 -0.05087585448648326 -0.7142601115046796
21
Properties=species:S:1:pos:R:3:forces:R:3 energy=-17592.48828638675 pbc="F F F"
C 2.014148361486 -1.213917021798 -0.261926679268 -1.7994565473982522 0.6931377156164709 0.23714533479490782
C 1.391884361486 1.297093978202 -1.023799679268 -3.159141376179276 0.9865418002687063 0.8097199972757007
C 2.876540361486 -0.549937021798 -1.138182679268 -0.1557087562182046 -1.1391211498098048 1.1726080738336035
C 2.514895361486 0.709055978202 -1.510732679268 2.2635020937995836 1.8158777833446123 -1.5861874038120543
C -2.997733638514 1.889141978202 0.497866320732 -3.0320096280475672 0.027438634760764653 0.45538792155759067
C 0.783137361486 -0.619949021798 0.243565320732 0.7534617744503802 -1.4266618353205789 -0.8226695137320148
C 0.420330361486 0.692374978202 -0.211919679268 0.28968391296059237 -1.4753147388542869 1.768012851852679
O -1.080789638514 -0.894756021798 1.682922320732 2.0660800030735476 -2.542177699863883 -1.0752639760129445
O -2.076973638514 0.657388978202 -1.296418679268 0.3570408920256594 -0.8814491859602871 -0.3601479780047738
O 0.165524361486 -2.820903021798 1.227054320732 -1.7246633450592912 0.3192321494421664 0.6373201188544468
C -0.122050638514 -1.480841021798 1.122890320732 -2.2454419571392132 2.2805586900103396 1.037089863430408
C -1.900125638514 1.191189978202 -0.237571679268 -0.7045668507558306 1.2613107035058568 -0.5109482322174714
O -0.717273638514 1.412740978202 0.352794320732 2.97358994794424 -0.9204583331621146 -0.7616849895975397
H -0.622976638514 -3.269759021798 1.708185320732 1.751901273652004 1.380573355775177 -0.9533512762794429
H 2.173206361486 -2.244712021798 -0.020484679268 0.32325284590269165 -0.7700884366766537 0.49021310980975447
H 1.081253361486 2.275578978202 -1.266873679268 0.13473685961158288 1.7073387115203336 -0.7741081217763522
H 3.846219361486 -0.932169021798 -1.417202679268 0.27581353311543994 -0.5779635010928211 -0.2854474218323179
H 3.231069361486 1.307771978202 -2.146556679268 -0.8784514535646109 -0.4506133539147262 0.5058457828074902
H -3.615880638514 2.543557978202 -0.197246679268 0.8299749039920516 -0.7497346117742465 0.1701090216913337
H -3.771468638514 1.064858978202 0.796393320732 1.3356743706800493 1.3190162662898082 -0.0439557910904944
H -2.756992638514 2.578408978202 1.339307320732 0.3447275033599687 -0.8574429644645387 -0.10968737114141708
21
Properties=species:S:1:pos:R:3:forces:R:3 energy=-17591.83607622373 pbc="F F F"
C 1.947131703327 -1.045578084745 -0.333344947609 -1.05261221331354 -0.24029767907901026 -0.024986325055783014
C 0.950798703327 1.145329915255 -1.601474947609 -0.30131427770278546 1.7759706816866054 -1.9805472041395136
C 2.671489703327 -0.492884084745 -1.377329947609 1.1212708708966646 0.7762358805604335 -0.37564451884056016
C 2.172643703327 0.652195915255 -2.091065947609 -1.1490446517913704 -2.511046574100644 1.682198837889875
C -3.258056296673 1.312417915255 0.625853052391 0.6260863985972615 0.3947245769016303 -1.8292376376617998
C 0.699677703327 -0.558802084745 0.093673052391 1.181189914553398 -0.484750657740387 0.9330137513925423
C 0.251336703327 0.600957915255 -0.565555947609 -1.3761899973946334 0.48575437244560077 3.863096131411663
O 0.477886703327 -2.392597084745 1.795245052391 0.4266815041013781 1.1239625185315016 -0.9806800738987901
O -2.124914296673 0.101168915255 -1.193597947609 -0.13274314341262758 2.1269847197375977 2.7638185565345914
O -0.224372296673 -0.257784084745 2.337868052391 0.3838524353124201 -1.6660134360563017 -0.5214097942696134
C 0.353958703327 -1.238196084745 1.444981052391 -2.696720262189995 1.6681601404988067 1.8637010397939555
C -2.025015296673 0.899845915255 -0.232364947609 -0.5259333540477773 -1.1515471100063688 -2.3254866976808826
O -0.792354296673 1.382820915255 0.135330052391 -0.026903127835268395 -1.2487897735978248 -1.5150795845327654
H -0.532932296673 -0.688491084745 3.196621052391 0.8520367164799022 0.17987592174551775 -1.6979200959891085
H 2.218425703327 -1.947206084745 0.192375052391 0.930678459382624 -0.3902925546008941 0.09536789387238644
H 0.502647703327 2.034759915255 -2.098391947609 0.1848489268420797 -0.46336156024371844 0.2752221605444506
H 3.706309703327 -0.880213084745 -1.428136947609 -0.3447907713483097 0.08503246476343568 -0.9172788295681668
H 2.414134703327 0.872103915255 -3.108869947609 1.1300828752537582 0.7728388993524559 -0.5719528240088007
H -3.292619296673 2.167105915255 1.295879052391 0.8086510984386092 0.5427032565330485 0.005354597824057427
H -4.170932296673 1.317269915255 0.013218052391 0.24817458997860875 0.1952330228003379 -0.4757702495574756
H -3.386212296673 0.451520915255 1.200737052391 -0.2873019904920782 -1.9713771101832525 1.7342208659396083
21
Properties=species:S:1:pos:R:3:forces:R:3 energy=-17592.013279925093 pbc="F F F"
C 1.805038451853 -1.271403113725 -0.458534445764 0.48575637497181223 1.406701063675707 -0.708939749895155
C 1.017494451853 1.177404886275 -1.526222445764 1.9234455624877922 -0.9978314351438505 -2.625844005320493
C 2.601270451853 -0.735168113725 -1.483440445764 -2.2083266445342815 1.802292500096045 -0.24991551742173782
C 2.185780451853 0.514020886275 -2.090259445764 -1.9921653861492936 -0.14256908610373487 -0.11481601772981508
C -2.980739548147 1.226600886275 0.970922554236 -1.429340810704021 1.026905692907308 0.20922656317155602
C 0.752519451853 -0.492218113725 0.123722554236 1.4484341605976734 -2.3856154251889508 0.5718954179150153
C 0.284365451853 0.617505886275 -0.501553445764 1.1063113413090757 1.5588826048009763 -0.44706937359366117
O 0.208144451853 -2.215116113725 1.562983554236 0.00650801447974816 -1.9858925113807273 1.4679970882150766
O -2.208562548147 0.081958886275 -1.024301445764 -1.9495137866909316 -3.428050777927131 -3.8936801782081494
O -0.108986548147 -0.044360113725 2.333158554236 0.8438816291045919 -0.9283375461266161 -1.1948701487055127
C 0.297263451853 -1.045734113725 1.409861554236 -1.9181628468703513 2.3905477788854164 0.6344046089955662
C -2.036748548147 0.852119886275 -0.187787445764 1.8818344385227355 2.1807333730648675 4.260779298410646
O -0.730076548147 1.370025886275 -0.054002445764 -2.2486104215305813 1.5953441285459053 1.9251585033823098
H -0.232780548147 -0.414751113725 3.221440554236 -0.020605425935004983 -0.5195313674440704 -0.2879474092252507
H 2.043727451853 -2.291582113725 -0.184951445764 -0.11607068480105338 -0.16475440500801236 0.8969581888204797
H 0.560871451853 2.028118886275 -2.039665445764 0.2394626994959175 0.14731838303654185 -0.020859116544556397
H 3.392491451853 -1.334230113725 -1.847428445764 1.118211249654987 -0.6206753106132936 -0.8189389544849099
H 2.406072451853 0.818076886275 -3.172196445764 0.6560238876527933 -0.20871777619132093 1.7025940220061961
H -2.509664548147 1.171373886275 1.979288554236 0.3046113124060021 0.14414479627061808 -0.7111911033282938
H -3.472974548147 2.262647886275 0.868424554236 1.0108571760651242 -1.0770472033726997 -0.06411080767441704
H -3.872231548147 0.536828886275 1.024675554236 0.8574581604673092 0.20615252311424948 -0.530831308579391
21
Properties=species:S:1:pos:R:3:forces:R:3 energy=-17592.628415649848 pbc="F F F"
C 1.956000231677 -1.230329435045 -0.433796733655 1.8814738343192425 0.9872744817958045 -1.4671576772673975
C 0.749472231677 1.125391564955 -1.349522733655 0.32540342004247896 -1.579730040773474 0.547050369646681
C 2.412316231677 -0.649661435045 -1.667568733655 -1.9901083855178971 0.3660584535470554 2.569262737901089
C 1.834783231677 0.545064564955 -2.057174733655 0.512762985143411 0.2620916718654283 -1.272471937391523
C -3.166337768323 1.908374564955 0.308818266345 0.008325568342168304 -0.4225205587610608 0.823599197917592
C 0.933724231677 -0.677687435045 0.281922266345 -2.6240223009785466 2.27710417295469 0.6243178647202176
C 0.237079231677 0.544218564955 -0.174451733655 0.489534691455014 -1.163970375176458 -1.7660697855532113
O 1.464878231677 -1.808021435045 2.288303266345 -0.669180080394155 -0.34328858152424785 -0.04376847454579694
O -2.207764768323 0.518160564955 -1.485250733655 -0.4006216640539193 0.13403413365451286 1.100854345839682
O -0.699753768323 -1.095159435045 1.966657266345 1.029935309555105 0.1430337726460276 -1.373673019078911
C 0.619208231677 -1.285930435045 1.594888266345 -0.5163837997982783 0.3306884471801481 1.1968819594289455
C -2.131881768323 1.035019564955 -0.393880733655 1.5466282464906285 0.9391889191825431 -0.4364766223083626
O -0.949723768323 1.117024564955 0.336582266345 0.8177048916605878 -0.756563293346033 0.5370359246916762
H -0.891275768323 -1.660087435045 2.706675266345 0.1561937657627347 -0.5139440260645948 0.9824829740525288
H 2.631225231677 -1.930103435045 0.042112266345 -0.3079863715301567 -0.863737328992419 0.18841613521325604
H 0.176990231677 1.864602564955 -1.844267733655 -0.5250970129482905 1.4212247477951538 -0.3497161322102855
H 3.184139231677 -1.132056435045 -2.177097733655 1.5793225587310764 -0.6862109196646489 -1.1716502896355125
H 2.252808231677 0.991704564955 -3.000532733655 -0.7269456244622828 -0.0019118549175058206 0.7536393574505109