9
Properties=species:S:1:pos:R:3 energy=-167094.57346899825 pbc="F F F"
C        0.03351401       0.80750806       1.05105134
C        0.24417401       0.74951506      -0.49041168
C        0.01388901      -0.75203496      -0.86610169
O       -0.82416901      -0.99916297      -1.70856970
O        0.58880902       0.25447406       2.00118536
H       -1.00149301       1.38168007       1.20242835
H       -0.47233000       1.40229008      -0.97989269
H        1.24727903       1.04238907      -0.78578369
H        0.49012002      -1.59246198      -0.44369068
