9
Properties=species:S:1:pos:R:3:forces:R:3 energy=-7245.905793366987 pbc="F F F"
C 0.033514009111 0.807508064835 1.051051343145 -2.177980631345773 0.686625366637952 0.8061625384820563
C 0.244174012777 0.749515063826 -0.49041168368 1.0552719693992059 -1.8724922778788136 1.820377939069925
C 0.01388900877 -0.752034962304 -0.866101690217 -1.6865733052781726 2.412505877997912 -1.7210379340854465
O -0.824169005814 -0.999162966605 -1.708569704878 -0.6201913125323631 -0.24028748119543336 -0.649611983588005
O 0.588809018775 0.254474055211 2.00118535968 -0.08660305096269638 0.649890995678649 -1.8451074393819868
H -1.0014930089 1.381680074828 1.20242834578 1.5011332017034933 -0.6271924540102711 0.32366808095732563
H -0.472329999691 1.402290075186 -0.979892692198 -0.4797326134558564 -0.03403867258839708 -0.2885587693911271
H 1.247279030234 1.042389068923 -0.78578368882 0.7950926750638818 0.09971492363523177 -0.04463839764333242
H 0.490120017057 -1.592461976929 -0.443690682867 1.6995840497864072 -1.0747260508349874 1.5987468525831954
9
Properties=species:S:1:pos:R:3:forces:R:3 energy=-7245.622040284898 pbc="F F F"
C -0.229414641274 -0.35476084988 1.372493837945 -3.9053989695208866 0.8187085139708243 1.9057812185104166
C 0.056286363697 -0.832607858196 -0.010522186123 2.0894482494945947 -0.09301235753480681 -2.3963860915929533
C 0.885266378124 0.275410161086 -0.896701201544 1.1807631970774857 -0.9908444197773224 0.9662149370905281
O 0.574863372722 0.468893164453 -2.040268221445 -0.8040476953727915 0.12999495191772995 -1.0221931022916455
O -1.225655658612 0.394833163165 1.639250842587 2.9233324076090064 -1.5665307426650557 -1.0289804627791375
H 0.277275367543 -0.825440858071 2.255722853315 0.5032139730852281 0.26986551194116964 -0.4486077809866826
H 0.505468371514 -1.898386876743 -0.170390188905 0.14703492724834427 1.7181764008612657 0.9286643850836562
H -0.791421651055 -0.941970860099 -0.687478197903 -1.0429625157445042 0.449413547448862 0.33698366494894955
H 1.85791739505 0.8163691705 -0.573313195917 -1.0913838929939732 -0.7357732348444131 0.7585239220505382
9
Properties=species:S:1:pos:R:3:forces:R:3 energy=-7245.765051629155 pbc="F F F"
C 0.216118247771 0.170141084936 1.459908349301 0.5182683295265479 -0.19236426138618046 -1.403919807913602
C -0.557846765697 -0.517168927025 0.304654329197 -2.577208510696828 -1.1697126614365034 4.6343491375133485
C -0.396642762892 -0.073943919312 -1.039973694203 0.2656906155672129 0.8799114120744868 -4.1111814642408415
O -0.153220758656 -0.793379931832 -2.033761711497 -0.42754730395486074 1.113712820092964 1.9471655669815056
O 0.876501259264 1.205112102947 1.335745347141 -1.025361378244404 -1.60258751449188 0.8478087909571862
H 0.048963244863 -0.531999927283 2.35510836488 0.6263992182778408 1.2842652430902384 0.11698097368607069
H -0.566335765845 -1.60582094597 0.433490331439 0.9579614591264198 -0.5068499026017398 -0.22451532740942698
H -1.652340784744 -0.432855925558 0.805841337919 1.4602826684756618 0.6378136069537932 -1.56601193226239
H -0.517612764997 1.048627100223 -1.143970696013 0.2015156038779976 -0.4441889553998955 -0.24067571392962536
9
Properties=species:S:1:pos:R:3:forces:R:3 energy=-7245.510560953566 pbc="F F F"
C 1.029382852573 -0.145798825109 0.83333431598 0.9381872262738964 -1.690833321374497 0.9886463032533382
C -0.418705172627 0.152902180089 0.723214314064 -2.214809858758101 3.0095817893401167 -0.5935510314592621
C -0.809456179427 0.859227192381 -0.666062710113 3.7540855916709086 -0.01879017136261918 4.269538466888004
O -1.482282191136 0.355323183612 -1.466987724051 -2.9848650725851207 -1.5529721933391698 -3.312886626497212
O 1.662770863596 -1.183595843169 0.620013312268 -1.1452524348400184 0.893883294186204 -0.4469397801532701
H 1.480055860416 0.655547188836 1.388372325639 1.4372404051499374 1.3280899702307105 0.3168054813121162
H -1.073561184023 -0.721003835119 0.73507831427 -0.2559334292733755 -0.259874833065159 0.6348167220949679
H -0.67343817706 1.113324196802 1.477219327185 0.43321077241965855 -2.891873490109894 -1.2944967589258705
H -0.230721169356 1.782171208442 -0.761434711773 0.03813553452079626 1.182789705394633 -0.5619337888499368
9
Properties=species:S:1:pos:R:3:forces:R:3 energy=-7245.82157710802 pbc="F F F"
C 1.115390491573 0.798062833011 0.649282737005 0.40774540541836124 -0.5605687717368968 0.7917072614779253
C -0.272134532573 0.706586831419 0.032927726278 -0.17023124228544118 1.5024890294674413 -1.0237472168405952
C -0.702286540059 -0.537165190225 -0.673880286022 2.577159199908632 -2.2448736769549194 0.6701593392435939
O -1.764200558539 -0.757671194062 -1.190712295016 -0.7724998230893261 -0.018825088566544693 -0.04801781567543258
O 1.608227500149 -0.153738183553 1.227603747068 0.12168484828445472 -0.3294918835848018 0.10002295403612844
H 1.767679502924 1.728612849205 0.567110735574 -0.9815176027215489 -0.12626180206390605 -0.27836676301878127
H -1.098216546949 1.272721841271 0.494624734313 0.15113934630320355 -0.002676245773057222 0.28792464212255653
H -0.127075530049 1.170708839496 -0.952288290867 0.10209891579361975 1.348457216462611 -0.3968585157727201
H 0.254519476592 -1.226987202229 -0.794127288114 -1.4355796148291702 0.43175202203395563 -0.10282475186610353
9
Properties=species:S:1:pos:R:3:forces:R:3 energy=-7245.563171219278 pbc="F F F"
C 0.026238894951 0.067214374494 1.204829384427 1.4375897604891998 -0.4201334328796381 -0.12179685763420253
C -0.34620011153 -0.566386636532 -0.094291638181 -0.9809020809764109 -1.2799571410822226 -1.320289683592172
C -0.194627108892 0.138398375733 -1.485797662397 -2.4610719002398254 -0.2189959050651059 1.319910655212308
O 0.848095909254 0.431949380841 -1.959090670633 3.274376682217773 0.8993710248279739 -0.5926984687104825
O -0.403744112531 -0.061290627742 2.332843404056 -1.093118350112481 -0.15805592314840766 -0.32313599208290383
H 0.977474911505 0.508032382165 1.027194381335 1.873574467469285 1.6890554108402536 0.23934486350354858
H 0.477472902804 -1.279824648948 -0.441610644226 -0.7825687452463184 -0.2031621055481575 1.5788384555623232
H -1.329092128634 -1.046439644886 0.104118365272 0.15294281192693104 -0.2824885866671779 -0.8242097217490824
H -1.050926123794 0.231281377349 -2.153273674012 -1.4208199066680756 -0.025632995181567197 0.04403586140885562
9
Properties=species:S:1:pos:R:3:forces:R:3 energy=-7245.821276217642 pbc="F F F"
C 1.165805907477 0.022138063228 0.619632259967 -3.1567534758856235 4.39502814615296 -2.059801725507844
C -0.437624120426 0.147429065408 0.546528258695 2.5781754224761 -0.3247681125532329 -1.840039658665207
C -0.731175125535 0.127262065057 -0.983169767925 -2.296432632857501 1.0571465943077665 1.3991603012266427
O -1.872973145405 0.394302069705 -1.350789774322 0.9765770673368193 -0.2295639591267534 -0.45215880578679907
O 1.880675919917 -0.686443949103 1.197406270022 2.251877478618502 -3.580608185086279 2.4978950079970077
H 1.654148915975 0.901069078524 0.029260249693 -0.7564869837831038 -0.537812461537499 0.06874705383492083
H -1.058947131239 -0.677001948939 0.859066264134 -0.05909407490608558 -0.817146742504527 1.0373943771673615
H -0.741205125709 1.084079081708 1.027376267063 -0.11096736971436773 0.2367856875840243 -0.05955688394836909
H 0.059395888223 -0.205936940741 -1.660234779707 0.573103569738873 -0.19906216703585305 -0.591639613080042
9
Properties=species:S:1:pos:R:3:forces:R:3 energy=-7246.023735842644 pbc="F F F"
C -0.089855087981 -0.646030284269 1.006121657579 -1.1577843349369685 -0.6001518530002897 1.2288505900682898
C -0.337769092296 -0.450584280867 -0.53560236925 0.9031967796867524 -3.580967059632159 1.1928301558006678
C 0.787337927284 0.360449733246 -1.048856378182 1.220992547745606 0.7888070701814238 -0.7039924671035154
O 0.680590925426 1.542862753823 -1.282337382245 -0.2762048924811186 1.0490589112173139 -0.2567326940131139
O -1.027916104306 -0.84954028781 1.804169671467 2.0567857910333607 0.4792670885236758 -1.6227019279286317
H 1.011928931192 -0.591657283323 1.367138663862 -1.1034420873954784 -0.07896725862723347 -0.33343043315108967
H -0.28689509141 -1.544216299899 -1.013180377561 -0.27763678134857145 1.9952529840216926 0.8802307319359134
H -1.330534109572 -0.032646273594 -0.576775369967 -0.6144321949082981 0.5042063152361005 -0.6365817479412105
H 1.834752945511 -0.069622274238 -1.17287938034 -0.7514712850375043 -0.5565073367227602 0.25153022857084534
9
Properties=species:S:1:pos:R:3:forces:R:3 energy=-7245.909347353729 pbc="F F F"
C 0.285448743482 0.462812365105 1.036259494043 -0.34766817693978525 0.1549297875021624 -1.6154679805620138
C 0.638967749635 -0.426590650373 -0.300831529226 2.7276416009154625 2.2393329449136847 2.8350540645188316
C -0.235623265585 -0.139887645384 -1.464916549484 2.1592558375896442 -0.6091137068932818 0.06756144372745987
O -1.423348286254 -0.135707645311 -1.458881549379 -2.722463879870785 0.1776581554491601 0.21085669735418475
O 0.758965751723 0.22866036103 2.120990512919 0.1670727899084497 -0.22324252275086168 0.07034217466726189
H -0.436486269081 1.342770380418 0.886833491442 0.41908018503173156 -0.6503038080101133 -0.09414891548818802
H 1.80866076999 -0.203685646494 -0.505936532795 -2.4827064985898906 -0.43026708485007414 0.1950140981094657
H 0.607061749079 -1.409552667479 0.148597478595 -0.24322982878007007 -1.0696936385572928 -0.248225934022856
H 0.363653744844 0.029573357565 -2.351748564917 0.32301782443452615 0.4107003026947839 -1.4209850421865147
9
Properties=species:S:1:pos:R:3:forces:R:3 energy=-7245.715240521888 pbc="F F F"
C 0.760010102595 1.146546362287 0.413916481394 1.0508340217914631 1.0103040599204427 2.043977067138405
C 0.253877093787 0.368173348741 -0.688669537794 0.27500980032035965 0.08147329296173869 -3.9864214770765063
C -0.600299921078 -0.693389669732 -0.291567530883 -2.2828131165290615 -5.304931327978508 1.9953249138133407
O -1.485738936487 -1.277354679895 -0.910767541659 -0.09779938226889096 1.3348319351053886 -0.9510175597128191
O 1.091832108369 0.559851352077 1.444152499322 0.006588397080989588 1.1818820284422353 -0.3213289566603774
H 0.871182104529 2.255355381583 0.217042477968 0.07132122740080238 -0.3169208375409589 0.5701751491897926
H -0.34641491666 0.847971357091 -1.515226552178 1.2044891161381321 0.31643128388735037 0.26608081285211294
H 1.153779109447 -0.240805661856 -1.059838544253 -0.7373408533542325 0.9564535337701395 -0.24570010222782662
H -0.351471916748 -1.2546586795 0.635898485257 0.5097077817513347 0.7404738497685605 0.6289105886568697
9
Properties=species:S:1:pos:R:3:forces:R:3 energy=-7245.496699669442 pbc="F F F"
C 0.501240503924 -0.836831322628 1.091928643554 -0.6034077046979214 0.9638624029235273 3.1878559310275842
C 0.572319505162 -0.098862309786 -0.137509377842 0.3081090491148373 -0.0399204796162883 -5.439668135174689
C -0.585336514984 -0.049900308934 -1.260895397391 -0.30314446717718835 -1.1812805625615839 3.7441449594032257
O -0.793042518599 0.993686709227 -1.813861407014 -0.13855702076806373 0.31936789748131883 -1.308214883932398
O 0.341562501146 -0.106883309926 2.085096660837 0.009164105853571216 -1.586263614505096 0.15560238327394207
H 0.668717506839 -1.947927341964 1.197542645391 -0.17961731004693876 0.4156353168852002 -0.32348379597695504
H 0.563454505007 0.978802708968 -0.014767375705 0.9551388231842055 0.451274572353007 0.7901667109106163
H 1.452969520487 -0.481174316439 -0.736621388267 -0.16187008772321626 0.5741272619669678 0.36902798187016767
H -1.333019527996 -0.88861632353 -1.10169539462 0.11418691612423022 0.08319764628748685 -1.175431454126275
9
Properties=species:S:1:pos:R:3:forces:R:3 energy=-7245.892026991482 pbc="F F F"
C 0.606126990687 0.020075974872 0.87849740418 -1.141139779369016 -1.8321208665043036 2.4790690159837574
C 0.417021987396 0.680583986366 -0.479689619456 1.9035695827120074 -3.270049395290346 -0.660033724613434
C -0.795919033712 0.036767975162 -1.110093630426 -1.9222956360314116 1.2975110800844152 0.4946513424648606
O -1.011360037462 -1.125725045068 -1.34359963449 0.68371685156629 -1.0240659065349642 -0.30233735070948503
O 0.810014994235 0.477297982828 1.999456423687 0.09458379224730448 0.26660875253171323 -1.5652679555707347
H 0.40864598725 -1.168650045815 0.811484403014 0.5270470472619382 1.9672239406199368 -0.36589890104227035
H 0.401682987129 1.718287004425 -0.653559622482 0.16589522500360993 1.9307686775893211 0.44744293021415543
H 1.361195003827 0.204563978082 -0.927090627242 -0.86568358805935 0.7168703177467067 -0.27187625616480476
H -1.681620049126 0.756378987685 -1.170598631479 0.5543057373992893 -0.05274593985944689 -0.25574740631052617
9
Properties=species:S:1:pos:R:3:forces:R:3 energy=-7245.992833949406 pbc="F F F"
C -0.369247498695 -0.622825104775 0.936937995504 0.8225885432044252 -0.5050044337737795 -2.57148646655487
C 0.611968518381 0.382421912719 0.3563239854 -0.19882163665504138 0.8204800460102166 1.0447043616908744
C 0.211237511408 0.564418915886 -1.029671038719 -1.1355752556062941 -0.3642824928152591 -3.4803158917638912
O 0.71018052009 0.074338907358 -2.055001056563 -0.3133310346783221 0.7364294170852673 1.648426953241226
O -1.099595511404 -0.382449100592 1.825144010961 -2.13599983474333 0.9833062916658943 3.519892428807201
H -0.594049502607 -1.54138612076 0.349364985279 0.8562078048217578 -0.3911584663767285 -0.39410812771179043
H 0.533318517012 1.375680930004 0.841657993846 -0.267690442736829 -0.3308474971135306 0.37127161713186935
H 1.618004535889 0.086410907568 0.40574998626 1.9944570630778182 -0.9926962970591335 0.16339306879393975
H -0.782181505881 1.111226925402 -1.087307039722 0.3781665865913375 0.043772949898189376 -0.30177785237004034
9
Properties=species:S:1:pos:R:3:forces:R:3 energy=-7245.872531736196 pbc="F F F"
C 0.337908376137 0.888208349879 0.591409847062 2.296550057697058 -0.6027561250967094 0.9008167776269378
C -0.016007630023 -0.552214675187 0.909409852596 0.18562084146954247 -0.13870036734820257 -3.0470604662832628
C -0.813705643904 -1.101516684747 -0.382529169887 2.950592864711449 1.321890394581058 2.533930225521565
O -1.050107648018 -0.510748674466 -1.380754187258 -0.7958992863394299 1.5715850464508936 -1.9754869909254753
O 1.510514396542 1.244118356073 0.344141842759 -2.7261318153768 -0.2170956018394289 0.2664672627423638
H -0.581807639869 1.494741360435 0.690781848791 0.18091738074749547 1.092728973129002 -0.4872440727528071
H 0.888210385713 -1.17756568607 1.079310855553 -0.37609210983476216 0.0602118842727947 -0.027288747403565648
H -0.792971643543 -0.723070678161 1.619641864955 -0.6252122325224061 0.2108971855984592 1.6605337995381888
H -0.96458364653 -2.11826270244 -0.253238167637 -1.090348469525514 -3.2987626523943727 0.1753323184626556
9
Properties=species:S:1:pos:R:3:forces:R:3 energy=-7245.8602634294375 pbc="F F F"
C 1.181467391538 0.041474162384 0.568410538637 -0.47099565853316533 -1.2080999944726973 1.9951511753304771
C 0.117444373022 -0.510256847218 -0.596274481631 3.409590175286097 -0.08875433332739331 1.6632880114072093
C -0.814354643194 0.5998321721 -0.833410485758 -1.5438831297771103 1.0566175441405627 -0.1772404289660136
O -2.035660664447 0.515766170638 -0.748351484278 0.8210131891541553 0.3141916423214042 -0.13336685157362702
O 1.564104398197 -0.658906849804 1.529033555354 -0.8095983361905793 1.02018977402853 -2.395874546841904
H 1.466180396493 1.154930181761 0.633673539772 -0.3369225812964033 -0.8259709637668526 -0.8587089969472707
H 0.817074385197 -0.544556847815 -1.500567497369 -0.818567861851909 -0.6048521739356131 0.6685889956969143
H -0.299424634232 -1.485053864181 -0.186810474506 0.3571921404881175 0.9427021709601714 -0.846710015173213
H -0.26942863371 1.586043189263 -1.081239490071 -0.6078259634786716 -0.6060240261243421 0.08487415023904976
9
Properties=species:S:1:pos:R:3:forces:R:3 energy=-7246.155437425516 pbc="F F F"
C -0.177887423726 -1.111982820193 0.974976017446 -0.08055264529837024 1.518761141882961 0.5871741572402482
C -0.490672429168 -0.618559811607 -0.466956007647 0.08043416721702491 -2.981284677777547 0.9124159288289375
C 0.299143584576 0.603681209664 -0.765049012835 -1.511139207877755 -0.19651296155806322 -0.5482789651823857
O -0.086686422139 1.450128224393 -1.528308026117 -0.01772174678234122 1.3187892992739998 -0.6802035433135561
O 0.425645586777 -0.375494807377 1.769344031269 -0.6289389470466544 -1.3644923654698626 -0.7979453875427096
H -0.636494431706 -2.097240837339 1.293992022997 0.38641621022306133 0.29524775290753624 -0.14532011306759376
H -0.001690420659 -1.397145825156 -1.144775019443 -0.6349339069541269 0.35801919861017334 0.365926811537102
H -1.609431448637 -0.709518813189 -0.609792010133 0.9035709403179466 0.6807126711482362 -0.23980231558658618
H 1.266664601413 0.566039209008 -0.304441004819 1.5028635355779487 0.37076095075028276 0.5460311665942394
9
Properties=species:S:1:pos:R:3:forces:R:3 energy=-7245.557918495967 pbc="F F F"
C 0.192477912992 -0.784552439736 1.092769082071 1.1452181235481351 0.32942050209963186 -1.2759097588492985
C 0.667860921265 -0.60029443653 -0.340610942874 1.2888243519865685 1.0720639902691682 -0.205662466991968
C 0.059121910672 0.603810584424 -1.077991955706 5.39229147218207 -1.2511401646933111 3.2180693364262294
O -0.959298107051 0.611699584562 -1.592461964659 -6.6569524823980295 0.5096624875777314 -3.545104984853115
O 0.061850910719 0.101655575686 1.888916095925 -0.5897089855778243 1.3865892702394225 0.9522866990428175
H 0.17795591274 -1.808912457563 1.381699087099 -0.47898133591203723 -1.9684100099790183 0.6874121368248319
H 1.686793938997 -0.057445427083 -0.264343941546 -0.36198853658650954 -2.0773857551268424 0.22208873353454392
H 0.632212920645 -1.5754864535 -0.90300095266 0.26787078720772955 0.8200867759994824 0.21699960766332685
H 0.798313923535 1.420045598629 -1.039648955039 -0.006573991626186649 1.179113592927995 -0.27017861178731206
9
Properties=species:S:1:pos:R:3:forces:R:3 energy=-7245.789152593274 pbc="F F F"
C 0.562951822831 0.686288566756 1.056364656793 0.20245240356040314 0.042114720687576775 -0.8039994441470474
C 0.410127820171 -0.131642447478 -0.233766365658 -0.8397857800232269 -3.3663465763271643 0.09020747798610718
C -1.089491205925 -0.332687450977 -0.699430373762 -1.149485241061095 0.12985530149877034 -0.6836800958142015
O -1.51272521329 -0.785034458849 -1.777639392525 1.4215756606434031 0.7154010897229122 1.8152314714936728
O 1.615999841156 0.613428565488 1.655915667227 -0.07072821073260557 0.4467330637344446 0.6091070930428997
H -0.319796192531 1.337735578093 1.40095666279 0.649722736920273 -0.5417024383453831 -0.24902676223249712
H 1.152259833086 -0.02832444568 -1.051193379883 -0.3625764533878966 1.1351473470669466 -0.06026082650859451
H 0.830151827481 -1.231305466615 0.035132639021 -1.2543041154998944 1.833252919762974 -0.008109186261935488
H -1.915566220301 0.002580554858 0.080408639809 1.4031282465970836 -0.3944552864850209 -0.7094694839808664
9
Properties=species:S:1:pos:R:3:forces:R:3 energy=-7246.063595664519 pbc="F F F"
C 0.841389042198 -0.14802012587 1.239577749785 -0.8896708969389046 2.5622767072765082 -1.9862074508541485
C 0.363713033885 0.676672888482 -0.044734272565 0.30684538442189335 1.0454734116097437 -0.018485879723186435
C -0.815844986642 0.067079877873 -0.86674728687 0.8196614768747316 0.0835337148301702 1.52384640278458
O -1.780662003432 0.628128887637 -1.343401295164 0.4202622872625072 -0.12124626632001227 0.06417583702659571
O 1.391508051771 -1.185069143917 1.046592746427 0.8868433764442586 -2.254224928848929 0.49232048911653614
H 0.747815040569 0.374490883223 2.237376767149 -0.16060197856183528 -0.3315006760532606 -0.2178446265476563
H 0.164357030416 1.734558906891 0.273114732966 0.03297041753603521 -0.387285368569282 -0.4451846442757033
H 1.218736048764 0.655599888115 -0.829913286229 -0.8220823267897567 0.04607976897521829 1.2841523412394045
H -0.589569982704 -1.018890141025 -0.876596287041 -0.594228787067193 -0.6431062907519209 -0.6967717356698591
9
Properties=species:S:1:pos:R:3:forces:R:3 energy=-7245.760257645324 pbc="F F F"
C 0.741395265136 -0.171925107185 1.222246020914 0.3625795824860634 0.9790856797394876 -1.0341325555068934
C -0.468106755912 0.199215899274 0.315228005129 1.0287672987490692 0.6771564822981488 -0.8992933776439175
C -0.263136752345 0.914065911714 -1.125159019936 -3.27065507953364 -3.9234974701105076 -1.0584359032992108
O -0.73919276063 0.365381902166 -2.17352803818 2.090376676789079 1.9352103109264451 3.041459210560946
O 0.766184265567 -1.237256125724 1.776311030556 -0.29585531835075113 -1.4198650226874017 0.8111160806519181
H 1.67192728133 0.452033903674 1.340613022974 -0.567727170078124 0.6151761461630493 -0.376770522074384
H -1.033791765756 -0.743127117125 0.293342004749 -0.10464887158282606 -0.05776878092625659 -0.6418991523957781
H -1.120987767274 0.942395912207 0.793530013453 -0.026210258290692807 0.28785253108661973 0.542725508782673
H -0.066397748921 1.977400930218 -1.032727018328 0.7833731194623077 0.9066502015683102 -0.384768697294891
9
Properties=species:S:1:pos:R:3:forces:R:3 energy=-7245.791356398507 pbc="F F F"
C 0.861777966762 0.552695953041 1.246738844394 -1.212313605085675 0.733729233598325 -1.1681520667992886
C -0.047377049059 0.827540957824 -0.024910177736 0.10096374761979195 -1.2604987943154482 -1.2828554219392576
C -0.83296506273 -0.473939064825 -0.710073189659 0.4585742465053401 -0.07820326165812302 1.3674562816938916
O -1.629186076586 -0.442334064275 -1.64163520587 1.2064389423831094 0.3305979495322956 1.4014951525358854
O 1.615425979878 -0.388125063332 1.188778843385 0.5537749143573776 -0.7243446119373703 0.49504160912312745
H 0.88458496716 1.298419966018 2.116716859534 -0.3204168521461213 -0.48577846987232814 -0.6340188649150179
H -0.743378061171 1.710677973193 0.022730823093 0.7522347659715698 -0.40293074526766237 -0.25426198022434365
H 0.763836965058 0.837130957991 -0.855353192187 -1.0325556556126665 0.9378300218273784 0.9208528319548983
H -0.465621056337 -1.457373081939 -0.190320180614 -0.5067005185353971 0.949600539303088 -0.8455566159379218
9
Properties=species:S:1:pos:R:3:forces:R:3 energy=-7245.711094400215 pbc="F F F"
C 0.665256543867 -0.73395649863 0.89687235597 -5.176821971826281 -0.8416626484661699 -1.4592799136407857
C -0.472125475926 0.217325517925 0.502184349101 -1.4945193801605199 -1.3171271935829623 3.0884338352128817
C -1.077741486466 -0.042280486593 -0.825265674 1.9687829716844327 4.520480702655112 -1.1613351850703497
O -0.898283483342 0.876413529395 -1.660378688532 -0.9863785647066793 -2.180918964371275 0.42539315929682076
O 1.738331562541 -0.353954492017 1.106151359612 5.229217561018648 0.953663998683158 1.1867128102932236
H 0.249105536625 -1.788195516976 0.991361357614 0.731517062391786 -0.07951590974846073 0.046685799776940796
H -1.245480489385 -0.198647489314 1.328813363486 0.9907449302631344 1.4158433250922584 -1.3629153777540532
H -0.201323471214 1.2961965367 0.621575351179 -0.16087528471951135 -0.6967070082202358 -0.009252055649278798
H -1.601569495581 -0.946294502324 -0.977791676654 -1.1016656553359403 -1.7740567240369522 -0.7544424841793895
9
Properties=species:S:1:pos:R:3:forces:R:3 energy=-7246.072736093568 pbc="F F F"
C -0.182706152699 0.167053727124 1.032696118896 0.5679196163458575 1.218911337405425 2.440547540773183
C -0.723607162112 -0.097327277477 -0.309623904463 -2.633625525489395 1.5654800598842347 -1.9992565305146102
C 0.176533853552 0.006977724338 -1.491002925022 1.565315278118502 0.7653664685301783 0.42177044047176515
O 1.373830874388 0.226729728162 -1.329400922209 -0.40213567946605155 -0.2322584258379247 -0.7357498923539267
O -0.666283161115 -0.321725281382 2.04076713644 -0.37539926454520206 -0.843597510209836 0.023603084126900535
H 0.574356860475 0.972042741133 1.272663123073 0.04781408791224369 -0.2786062025420503 -1.245264300392826
H -1.224818170834 -1.06636129434 -0.382165905725 -0.44873990424218124 -0.31635229127125153 0.3807594030908607
H -1.574627176922 0.73918673708 -0.53872490845 1.4934347713925449 -1.7222294183691298 0.6678261209832099
H -0.314848154999 -0.050523276663 -2.498050942547 0.18541642567684255 -0.15671363850272152 0.04576459882247773
9
Properties=species:S:1:pos:R:3:forces:R:3 energy=-7245.884143479255 pbc="F F F"
C -0.108814022772 0.642095091493 1.100209730488 -0.134894313597997 0.32382787369948485 -2.8033259965831183
C 0.640337990265 -0.223414923569 -0.013424288891 1.4978994872499036 -0.5213462326007239 2.2990987103976614
C -0.260515025412 -0.663805931232 -1.094865307711 -1.293054722431968 0.3672671275210333 -0.6121330532009043
O -0.414273028088 -0.400873926657 -2.274176328233 0.8054269391629391 0.24115290771749204 0.21538067599325889
O 0.166336982016 0.629291091271 2.257676750631 0.30083051107192793 -0.3308547739676547 1.6768095420302978
H -0.814722035056 1.428974105187 0.655079722742 0.2160717398778288 -0.5837090966675494 0.22428275338192485
H 1.537721005881 0.399743087276 -0.209040292295 -0.053552931506537116 -0.23660067428616186 -0.5063993287587011
H 0.960600995838 -1.246843941379 0.469763719517 -0.21298992265604313 1.8267716888463972 -0.4500513737048671
H -0.975532037855 -1.288348942101 -0.557737298364 -1.125737046061103 -1.0865085318233179 -0.04366080976682584
9
Properties=species:S:1:pos:R:3:forces:R:3 energy=-7246.110449466773 pbc="F F F"
C 0.050077804631 0.721439327034 0.88765301679 -0.9348855802978956 0.030534075162779013 0.25797243157804334
C 0.610674814387 -0.407026692604 0.135918003709 1.114453658642219 -2.2512165715380585 0.275035748885236
C -0.170265199203 -0.888538700983 -1.084683017533 -0.19427909185542913 -1.1512574593314722 0.30367145623627356
O -0.384578202933 -0.190541688836 -2.037894034121 -0.2111613295910868 1.144376842037792 -1.0970725144910631
O -0.066327197394 0.736247327292 2.083394037599 0.3181347593781728 -0.2543338219375203 1.9928833450054786
H -0.400553203211 1.516849340876 0.364050007678 -0.5851493021159286 1.8576947275788398 -1.754652098765084
H 1.667250832774 -0.148286688101 -0.134146000991 -0.4320266316912832 -0.22462453356164663 -0.1732997687024172
H 0.625290814641 -1.227193706876 0.897648016964 0.395602576342718 0.14757002595014398 -0.4067499091435964
H -0.575942206263 -1.966092719735 -1.122020018183 0.5293131154009157 0.7012562969837784 0.602212405393448
9
Properties=species:S:1:pos:R:3:forces:R:3 energy=-7245.828983426386 pbc="F F F"
C 0.615549889334 1.045666721966 0.921412667641 -1.8972290669669616 1.488168448134288 2.2307866843502144
C -0.694696133467 0.599683714204 0.272719656352 -1.4123261651793226 -0.3912510323270205 -2.4778334201110535
C -0.629641132336 -0.947562312721 -0.273903353161 -0.7404520026593582 1.5382934617180106 0.7621114904744124
O -0.968799138238 -1.28880231866 -1.390343372589 0.5119481330838275 0.0843239609306211 0.6449657291130361
O 1.661410907534 0.63850171488 0.52717866078 2.0598917271105472 -0.9079297332842708 -0.9376762502301823
H 0.620905889427 1.776681734687 1.862698684021 -0.5370047838650129 -0.8886929252992629 -1.4417247784363822
H -1.636223149852 0.562264713553 0.861267666594 0.4878161865088793 0.18479808213188814 0.793824751103677
H -1.067702139959 1.34989072726 -0.589668358656 1.2991354442536445 -1.5423272891162572 1.3410583770523616
H -0.469822129554 -1.676538325407 0.607743662182 0.2282195999607795 0.43461597273975683 -0.9155140616880603
9
Properties=species:S:1:pos:R:3:forces:R:3 energy=-7245.742823342385 pbc="F F F"
C -0.561382948996 0.15358471342 1.006824503793 -3.163268955041468 -0.8052096616011187 0.0920602239765104
C 0.686132072714 -0.346978295292 0.30961849166 0.20641132669441772 -0.9135307616674744 -0.7334993869201604
C 0.796562074635 0.511882719654 -0.932029529948 0.748974003565192 0.7229842813286242 -2.0419741448893247
O 0.38771806752 0.30245671601 -2.076424549863 -0.012292376195078123 -0.7000784596214744 1.3495689555063886
O -1.234733960714 -0.593627299584 1.744051516622 1.3505954196369212 1.9168434807668517 -0.9207772397638417
H -1.071046957865 1.16210873097 0.509218495133 1.2468968892617822 -1.7358487614183118 1.425437092524235
H 1.609506088782 -0.390505296049 0.888191501728 0.430941755707436 1.0319333779302498 0.5687070351479674
H 0.633126071791 -1.444939314399 0.105335488105 -0.8576072704831641 0.44426534939277085 -0.36433807315641314
H 1.301277083419 1.502228736889 -0.804889527735 0.04934765412404517 0.038638618548521214 0.6248170408182242
9
Properties=species:S:1:pos:R:3:forces:R:3 energy=-7245.904775779209 pbc="F F F"
C 0.383129976478 0.177068680033 1.469980552046 -0.04648963992767185 -1.1575067050205519 -3.232877002543654
C 0.539278979195 -0.515256332016 0.064073527579 -1.7270202120292664 1.7618915566887583 0.2308157782932039
C -0.501905038923 -0.125250325228 -1.056362491919 1.1348813925838563 -2.682616874040103 -1.3754126245227434
O -0.712432042587 -0.950885339596 -1.997909508304 -0.009276705236555391 2.9146871770607157 2.701299372453087
O 0.284101974755 1.364330700694 1.570676553798 -0.3769877066245462 1.722595532461655 0.4211566761850506
H 0.494642978418 -0.504753331833 2.264059565864 0.062019323242719804 -1.2791839649901855 2.261261732960379
H 1.386591993941 0.082553678388 -0.250721477899 1.1457691377828525 -0.11489054444884665 -0.671840576256753
H 0.717343982294 -1.583729350609 0.070820527697 0.2066208764753164 -0.537426713808382 0.04865936543073308
H -0.807538044242 0.962327693698 -0.991453490789 -0.38951764715536147 -0.6275511141153868 -0.383061424460611
9
Properties=species:S:1:pos:R:3:forces:R:3 energy=-7246.037993113243 pbc="F F F"
C -0.291349139111 -0.678828635272 0.804951581795 -1.1502226237379747 -1.8724515314628574 1.9967617565037754
C 0.397061872868 0.555120386202 0.367012574174 -0.7712157403783281 0.39576486863262367 0.7306414389111066
C 0.412530873138 0.847781391295 -1.08936045117 -2.022967178392319 0.16716682338791483 -1.7172812586982344
O -0.260366138572 0.439422384189 -2.045691467813 0.7765877155604494 -0.2682519285458626 1.6204436243641906
O -0.209751137691 -1.142769643345 1.956482601835 0.16696414629710404 0.6184869633996751 -1.656427627598431
H -1.02392615186 -1.132303643163 0.078626569156 0.36546098187602405 0.10634653805701624 0.020891770172903508