9
Properties=species:S:1:pos:R:3:forces:R:3 energy=-4210.180178656786 pbc="F F F"
C 0.005520567875 0.591490055517 -0.000813817516 -0.4424443698225639 1.4594772797642719 -0.08296261181824384
C -1.253639344982 -0.255356777577 -0.029800592477 2.5839714066954467 -1.8390126709456465 -0.43687758438560587
O 1.087830652707 -0.307554660752 0.048229813516 1.6035376654623443 -0.08698694488152513 -0.8152346099908244
H 0.0628212061 1.283752730515 -0.842788550732 0.07885664943740722 -0.24546010299002555 -0.20257637611445295
H 0.006056669641 1.230312098775 0.885346385648 0.08102431506562495 -0.04188835280066816 0.08641079657655223
H -2.218220596837 0.189805043069 -0.058160122993 -0.47824424439768287 0.506830358636643 -0.8020464777555546
H -0.910971712303 -1.053926336362 -0.781595843757 -1.648452798414119 1.065906481544475 0.7208852196818846
H -1.192009473383 -0.742476833865 0.921966757087 -0.2537030247956688 -0.6809954413735161 0.5636527038697239
H 1.848798480319 -0.028632403553 -0.525690230134 -1.5245455940919694 -0.1378706069540081 0.968748945075297
9
Properties=species:S:1:pos:R:3:forces:R:3 energy=-4209.886771238851 pbc="F F F"
C 0.02871986644 -0.600386884004 -0.015728802867 0.14182728300788777 -0.2703869781614881 0.0995054906071421
C -1.296039277809 0.227690665965 0.032362165131 1.616784883243271 2.5068611107768923 -0.9375640894409855
O 1.177093091163 0.286787829146 0.048817572346 -0.9736704812042256 -0.3625027313484555 -1.505180658499947
H 0.406831666081 -1.309717133822 0.738826026481 -1.6533072633530632 0.31073604920790215 0.4459749290196817
H -0.099174350082 -1.275899911104 -0.909355902001 0.8143074530509886 0.9946202383058013 0.29640656079810795
H -2.182425580935 -0.180473877193 0.360464472021 -1.5891491634496264 -1.6841816757811114 0.8107913183735269
H -1.24658699184 1.202761895494 0.574557007706 0.658544609252118 -0.9631631461995719 0.20097697592226876
H -1.55928820473 0.643933918519 -0.980617159598 0.5919513914408389 -0.8553528424741917 0.472502982396769
H 1.089077026665 0.805494158915 -0.756695336165 0.39271127773430226 0.3233699808130422 0.11658649082347931
9
Properties=species:S:1:pos:R:3:forces:R:3 energy=-4210.120760760688 pbc="F F F"
C 0.023082326005 0.609470631273 0.002089723955 -0.8137047270418108 0.6130126032649765 -1.1395549544165264
C -1.246722178468 -0.234016429736 -0.022986578425 1.131262063238267 -3.2582800631740874 -0.27089916423071747
O 1.086241893203 -0.340692124959 0.027766674652 0.6699768041676207 1.1365404199477624 -0.25336787439652153
H 0.075701518913 1.277249212201 -0.963969020749 -0.03486326230359412 -1.0973929622604932 1.8869678215128929
H -0.020210300794 1.264552979503 0.922223574517 0.34274959272430805 -0.566930117115243 -1.022532577939784
H -2.15222230047 0.289468067409 0.139854403292 -0.8370574796171923 0.5826041948049928 -0.5727324173933761
H -1.244120225095 -1.085356135633 -0.840845391562 -0.23562238018886092 2.454176398147139 0.7864911878092343
H -1.207172898602 -0.957307561239 0.813069796676 0.25556955866384645 0.677393119291957 0.25895260440867185
H 1.878247184288 0.147955839209 -0.262195371647 -0.47831016964258405 -0.5411235826294523 0.32667537464612684
9
Properties=species:S:1:pos:R:3:forces:R:3 energy=-4209.652755181495 pbc="F F F"
C 0.027384196154 0.522727592057 -0.039927043819 -2.1914088037748485 1.6984817755810735 3.328297457423105
C -1.369009348498 -0.238189750303 0.019556946163 3.0351512748571046 -1.7713924396696277 -0.31728560332371336
O 1.252596449189 -0.234738163853 0.064494363548 -2.5040583346284073 -0.8534462519154088 -4.279298914449101
H -0.110459266504 1.219093131327 -0.828305648104 1.0266946659363652 0.18435399402971156 -1.518812841889619
H -0.07643476724 1.278038010323 0.837710022209 0.8793973296460275 -1.4833091812742893 -0.9829664546082505
H -2.108532397314 0.234357976958 -0.608214187919 -0.26340206254664933 0.12583124613445873 0.33490494593450804
H -1.14950730844 -1.271143241764 -0.354098694303 -0.47543112904952106 0.7154706959181238 -0.14701620461239745
H -1.583392206257 -0.421161436729 1.056790814129 -0.7870147099989387 0.32939954307219366 0.24342090140394493
H 1.123212155561 -0.701662768483 -0.88491139372 1.280071769558868 1.054610618123721 3.3387567089827477
9
Properties=species:S:1:pos:R:3:forces:R:3 energy=-4210.133111875952 pbc="F F F"
C -0.005298292964 -0.567798258435 -0.046967616365 -0.7431534457095326 1.5214560593154274 0.5490324331770748
C -1.28331395788 0.248176698835 0.008418559706 -0.16241962857061756 2.4957935833395073 1.1526024128986614
O 1.2033180798 0.215338076296 0.052270370558 -0.42379350190938414 1.7480246202287248 -1.520274852000945
H -0.071483366399 -1.193007295766 0.830203642634 0.6444328092999798 -0.25986203774029054 0.16503198769914626
H -0.101367829602 -1.167565745163 -0.905144099772 0.7332157636081185 -0.884887120933438 -1.230257479809493
H -1.40216300394 1.023097817668 -0.774541613676 0.06234166901583283 -0.9814471575197685 -0.3391186220153951
H -2.232428404519 -0.308912506474 0.153856619274 0.8440194506363029 0.18199242729734605 -0.24990550150190352
H -1.152314517644 0.961636870655 0.864942256658 -0.37022569726882737 -0.8996675926946723 -0.1480768101986217
H 1.205511278328 1.07285847113 -0.539888504159 -0.5844174191018724 -2.921402776154017 1.6209664317513888
9
Properties=species:S:1:pos:R:3:forces:R:3 energy=-4209.932434888541 pbc="F F F"
C 0.008821967162 0.576926858924 -0.004255375369 0.43996501740638655 -0.8174187916169509 -1.4275804016804736
C -1.261870601671 -0.26711558183 -0.010664587529 -1.4328371139023428 1.8114175988008434 -0.04207495171656067
O 1.179164716358 -0.229458359865 0.027364435566 -0.322336795688803 -2.7437397808082986 -0.756452380043947
H 0.094404298432 1.189024943033 -0.950824022116 -0.4328531999346519 -0.1610155375048043 1.3324665323860814
H -0.023246554302 1.129007597715 0.920300985683 0.37206639855409745 0.7595522334651487 -0.1716924209956545
H -1.682308657482 -0.248571965323 0.989948359818 -0.14585520806948177 0.11128847832926497 0.18918075073573776
H -2.007944514446 0.356552090856 -0.655512810031 0.964791107660049 -2.0508435711675803 0.7563888802972144
H -1.108769728798 -1.341963828568 -0.152629330621 -0.16972150334859978 0.41770185306445573 -1.0567283965996073
H 0.93350083147 -1.131247950695 -0.407927190136 0.7267812973233462 2.6730575122991884 1.176492382478434
9
Properties=species:S:1:pos:R:3:forces:R:3 energy=-4210.1898428850445 pbc="F F F"
C -0.01176998582 -0.629625286966 -0.021568417137 1.304543637724179 0.25944725700404714 -0.5036938555275183
C -1.213333685818 0.28224088692 -0.013416787491 -0.1415834741963484 -0.8051312437561311 -1.9295673283113877
O 1.086811426111 0.294417764405 0.075744579492 0.8484646281812057 0.24609008502057528 1.115222763083465
H -0.053540297189 -1.261854843779 0.895518959599 0.4479242741218432 0.20930249313374003 -0.9018985730740355
H 0.275830466648 -1.198070301458 -0.933459624069 -1.3577584398881897 -0.1702803751181254 0.6539892257050826
H -1.001967366805 1.067973142404 -0.751299702004 -0.4454116224939765 -0.0796443967608652 0.48476636263522443
H -2.16477927161 -0.18880753597 -0.215800330588 -0.18238353887171108 -0.30917229150529096 -0.3185333011474967
H -1.284665780665 0.63176260348 0.968285325688 0.02395183519853071 1.0979645833115796 1.3005180816342616
H 1.567735771867 0.412619898302 -0.748803232648 -0.4977472946367571 -0.44857611132948594 0.09919662500240475
9
Properties=species:S:1:pos:R:3:forces:R:3 energy=-4210.222324374268 pbc="F F F"
C 0.022276254162 -0.551356258031 -0.009750171096 -0.24819953355479604 -2.472422213010456 -2.2440544001083893
C -1.266170033795 0.237338538532 -0.008132996787 -1.1807693835879751 0.7196082463012099 1.3828663949395494
O 1.144751141343 0.2671490398 0.068443711975 1.360128650027033 1.103640531580932 -1.1792861812005686
H 0.079856218687 -1.38260274571 0.733323046657 -0.09364730623525692 1.2710688908829257 0.09675933853480048
H 0.110526675109 -1.181674298778 -0.961274944607 -0.380950176021798 0.8285783954856459 0.8836678559088527
H -1.089024332098 1.14335470352 0.594339159363 0.09995467538999454 -0.1262481645978516 -0.47142751035693825
H -1.742771413699 0.530518169802 -0.948325728792 0.763775637232416 -0.1030576377653942 -0.12563442621051926
H -2.092220776492 -0.214894973245 0.553594594211 0.3103254411506555 -0.5030050243345714 -0.13684558219213225
H 1.376432423249 0.604405205813 -0.844975686 -0.6306179992614972 -0.7181630296811732 1.793954505546656
9
Properties=species:S:1:pos:R:3:forces:R:3 energy=-4210.027238362139 pbc="F F F"
C -0.110212741201 0.644735474998 -0.007524036579 4.159154911594349 -0.1460308151622369 0.20968974549387698
C -1.183815291115 -0.321515499045 0.014977793713 -2.6969428775435222 -0.6973245320290639 0.8516499855504318
O 1.198187407265 -0.227454224292 0.018318807472 -1.7513363039129386 2.598434780546804 0.1947695403739876
H -0.065458287103 1.253191731172 -0.915709061223 -0.13484846710972848 -0.19823582387050637 0.1894304074643691
H -0.024287514471 1.304890937898 0.855052077812 -0.1035940222895134 -0.26410039532022545 -0.03963438157672324
H -0.980210558715 -1.13967142053 0.767447673396 -0.6398880886949417 1.2539407167833585 -0.37520379066994247
H -2.205289386647 0.20702630704 0.127911043881 1.4932767658622623 -1.201187930904046 0.03742898711945582
H -1.165546607892 -0.823019242312 -0.930337754239 -0.37397555849651515 -0.33270095949946377 -0.6900010487348435
H 0.832458788551 -1.041079591746 -0.283847356715 0.04815363545172892 -1.0127950456834394 -0.37812944502061213
9
Properties=species:S:1:pos:R:3:forces:R:3 energy=-4210.1034557866005 pbc="F F F"
C -0.001085318184 0.542563631682 -0.041674023394 0.7710562477915412 0.4789324743548853 1.1818462328174166
C -1.291811145435 -0.2549124072 -4.162799e-05 1.5822624393991052 0.8646560820950837 1.1160273758409889
O 1.148465821158 -0.316862827581 -0.018350337491 -0.6274744200698684 0.2695143075706464 -0.7272348038094808
H -0.024121915181 1.328098707003 -0.802928269181 0.25611944272951315 -0.7279733834080253 -0.8405537118491667
H 0.121801110542 1.215115535103 0.837434765017 -0.7077585625190954 -0.7022595060343154 0.06421873221809356
H -1.931364345288 0.495538330026 0.369675288498 -1.8952191708968147 0.9117917791449925 -0.7844862977719691
H -1.512384510274 -0.79398019422 -0.900143925514 -0.4069078056806419 0.06894880815728419 -0.20732573784710184
H -1.306575112552 -0.853452814141 0.886636625329 0.510025942152692 -1.1551500646701924 0.13864576429778597
H 1.819955463863 0.212509599037 0.397259801248 0.5178958870935689 -0.008460492071669453 0.0588624461034336
9
Properties=species:S:1:pos:R:3:forces:R:3 energy=-4209.926674219624 pbc="F F F"
C 0.003228917355 0.503953955655 0.006672752205 -1.1374822840394105 -0.7661659605062134 -4.763661775942151
C -1.324980764779 -0.234605191091 0.012955153765 1.7999395969141694 -3.0016156541792016 0.5580852709481245
O 1.217810657957 -0.216520777747 0.055368597174 -1.3322620711152815 1.659418259656631 3.961325363800342
H -0.153494273429 1.048252129978 -0.999643993434 1.0650295303605586 -0.28887850318023395 1.2877468986950404
H -0.077115993529 1.218052251488 0.710004922142 0.7661411967868805 2.2066807472345267 2.6604360884535305
H -2.137495677231 0.447075942858 0.038573879357 -0.6994235488657708 0.3478226556827319 0.26386280955581476
H -1.335321612746 -0.825961875269 -0.885743657083 -0.47571752282513635 0.012241077988679324 -0.7493735380415377
H -1.327341586222 -1.069680351084 0.758587727661 -0.434850150576529 1.1709148827118057 0.1114929550163926
H 1.441103065518 -0.588485824798 -0.734224807182 0.44862525336056314 -1.3404175002699932 -3.329914067346779
9
Properties=species:S:1:pos:R:3:forces:R:3 energy=-4210.077276755545 pbc="F F F"
C -0.033390401075 0.579742581478 -0.025356799856 1.493305805035894 -1.3524967790334574 -0.6037616608782567
C -1.274325113994 -0.282010181687 -0.013488713946 -2.1469200292019144 1.0866876151379627 2.9581862056394073
O 1.205084626867 -0.247602478529 0.06350392668 -1.6178086695622265 1.008559771363866 0.10225733643351424
H 0.04305724401 1.148142959395 -0.924143276108 0.03171424629625494 0.592224907465755 -0.6024553143040343
H -0.01543115206 1.234947310671 0.818766293062 0.05931485289338134 0.34129747987866504 0.33615627686668154
H -2.247074139316 0.280111322376 -0.386831534581 2.142718968794587 -1.3428185378734605 0.4062865698319154
H -1.139857927824 -1.30103360143 -0.366741004953 -0.1168766461767099 0.33441823787325337 -0.49920533761977703
H -1.440131115668 -0.379855364648 1.13771770618 -0.19171763165110667 -0.3346883623118149 -1.9480515716969387
H 1.244614156676 -0.59773028795 -0.824094704624 0.3462691035718399 -0.3331843325007693 -0.1494125094112878
9
Properties=species:S:1:pos:R:3:forces:R:3 energy=-4210.233716691231 pbc="F F F"
C 0.042367795788 0.541953173267 -0.015412373359 -1.4180566678349882 0.46218831519211834 0.7034855285378603
C -1.358776581749 -0.248563899128 7.9828553e-05 0.7944515956085507 2.622267406623015 0.2723367189487468
O 1.196457775547 -0.270273188215 0.07188320519 0.0789309251790346 -0.40543687980814674 -0.31832669701072813
H 0.152277790575 1.115869108491 -0.938130270678 -0.4732319679169341 0.26391662272633115 0.2801414169620627
H 0.01181837606 1.22299719208 0.880502668985 0.34702498539971127 -0.5034849440842978 -1.0768262026198594
H -1.786165615112 -0.231395599024 1.033177113128 0.41942811400337154 -0.48008869184428365 -1.0249912519566078
H -2.072894730829 0.255299891926 -0.693147070044 0.4893091921739246 -0.2924345249689986 0.6170407133222009
H -1.127364024236 -1.188193655525 -0.400719021873 -0.10864873984887193 -1.5782431423277046 -0.1281561529013059
H 1.50792894637 -0.378481132901 -0.839960064371 -0.12920743676375535 -0.08868416664680936 0.6752959267176306
9
Properties=species:S:1:pos:R:3:forces:R:3 energy=-4209.902763055343 pbc="F F F"
C 0.00762468164 0.598434448516 -0.022866550819 -0.8795306138518028 -2.3251689930368236 -2.502437819241652
C -1.318608769334 -0.254071509887 0.002363802088 1.0627225784463687 -1.4331976652279554 -0.5432475327647948
O 1.214823055415 -0.239245888703 0.053881360002 -1.1688365699682886 2.7233982173642235 2.156842212781365
H -0.020151988058 1.17538808005 -1.042187064782 0.34159667946224653 -0.30632829216605634 2.458536071743974
H -0.096701276497 1.052340389277 0.931922636937 0.8231458860365721 1.4829659938431845 0.12974323032963855
H -2.245952419613 0.354414108531 0.118828362269 0.833989255308361 -0.607401963588453 -0.3894332889468749
H -1.325546987841 -1.030686497953 -0.811470832784 -0.4751998228586875 1.3844363602730048 -0.0888734068890697
H -1.21822942129 -0.984866235112 0.805303707664 -0.1924592790937284 0.5746275073910708 0.7439735415727785
H 1.236121566295 -0.869854486584 -0.613410374763 -0.34542811861977357 -1.4933311648522387 -1.9651030085853654
9
Properties=species:S:1:pos:R:3:forces:R:3 energy=-4209.990931720935 pbc="F F F"
C 0.006833455388 0.519744477996 -0.005042647133 1.1899916362372636 2.1293793713950473 0.042423462910521875
C -1.285936678231 -0.223357159326 -0.008642491682 -4.139433432915184 -1.024210755433689 -0.48444815475165187
O 1.197744888055 -0.25504925391 0.057744516626 -0.3912011893166979 -0.31053263624561667 -0.5719747472745124
H 0.145003125691 1.329956595667 -0.824873985812 -0.7008762269758136 -1.497751671175602 1.0504651694554545
H 0.061824972677 1.073218660577 0.919718758237 -0.15866521439516373 0.3640085340341658 0.18188750394794898
H -2.073718709341 0.090444285762 -0.775071877665 1.5300324305882864 -0.16076584480478473 0.36951158334108813
H -1.276244751501 -1.31915157784 -0.098536973692 0.8512521062196423 0.35545487611246446 -0.33495160080223546
H -1.985515192334 -0.154648340519 0.879713719729 1.4880319396089836 0.5036298264877743 -0.23217437528740695
H 1.349632941038 -0.501035905785 -0.854450419508 0.33086794580999423 -0.35921170550853493 -0.02073883640034421
9
Properties=species:S:1:pos:R:3:forces:R:3 energy=-4210.1889998613515 pbc="F F F"
C -0.030394101452 -0.574446487192 -0.003081478157 2.3017446934051997 -1.2825025503471004 -2.04990099278729
C -1.24019863032 0.255703201803 -0.010147545456 -0.4807814387778639 2.1081603428903284 1.8525923001627833
O 1.109577860993 0.310826947249 0.010553111745 -0.42173353456488893 0.5925431564594917 0.021635042545106672
H 0.123130149443 -1.282574818647 0.790182576777 -0.7231573924193853 -0.17332700632704662 0.6700009049859844
H 0.000548688829 -1.165991171842 -0.934265341046 0.061500411709118664 0.038648180201351454 0.19338316777761544
H -1.119201805436 0.777202525805 1.014802399882 -0.49443328309098755 0.2730999389362183 -1.9108297180072629
H -1.246908351639 0.946107442714 -0.932887300969 -0.08845631370755498 -0.9545762455926731 1.8287556864032057
H -2.189261596535 -0.267476840374 0.135959902813 0.3332275135618572 -0.2469615942500054 -0.5998032479210572
H 1.950617040216 -0.145094659062 -0.083762061391 -0.48791065611549495 -0.35508422197047784 -0.005833138020352504
9
Properties=species:S:1:pos:R:3:forces:R:3 energy=-4209.661878027586 pbc="F F F"
C -0.0363694011 0.495030382604 -0.050478976133 1.9516474703194542 0.3807876882018211 1.9614457171106976
C -1.349293583975 -0.239379749108 -0.01744814865 1.6446502956548785 -2.4153490445485564 0.15755888919687247
O 1.268640970721 -0.232281703735 0.087251397332 -2.2278708598960195 0.11266487657844515 -2.2262429498232583
H 0.119620564536 1.241705858008 -0.811142086464 -0.5330129686638464 -0.33135558398809 -1.0885110964142342
H -0.065434406605 1.164455595496 0.78996679233 0.23638033293992464 0.017271602231880595 0.862524043540111
H -2.023654006102 0.47833751595 0.301288715068 -2.1234042954848893 1.8191455184928544 -1.310441215885657
H -1.441288614366 -0.918381967471 -0.893934909985 -0.9160357585363116 0.9523874082434352 0.5542695101694153
H -1.57463543214 -0.822067698118 0.902694762379 1.4391935582842001 -0.5164356190243385 -0.4410565069836836
H 1.34999083391 -0.501558398331 -0.86481962677 0.5284522253825662 -0.019116846187408172 1.5304536193672456
9
Properties=species:S:1:pos:R:3:forces:R:3 energy=-4209.992437129538 pbc="F F F"
C -0.023851826146 0.571495188324 -0.016820346345 1.217646384886003 -0.19208140498377152 3.9566526776136097
C -1.2901739378 -0.27883424492 0.003696590633 -0.36491265901925585 2.40342652387965 -0.4985186955416523
O 1.201018988096 -0.280107903415 0.05962574661 -0.6643357018789144 1.4733907233010655 -3.78068508490957
H -0.104857226187 1.31576478242 -0.798362568311 0.6333934834171789 -0.2761277057306146 -0.5174235418867457
H 0.131621529649 1.221994272027 0.983277117515 -0.963590121230485 -1.4316386557462926 -2.10963905399515
H -1.399134738892 -0.992005054807 0.764869134209 0.2626425476103444 -0.5427521196318376 1.4046987096200978
H -2.094967936888 0.486765400922 0.071540416201 0.09342054785345696 -0.757669517618935 0.06374291834336343
H -1.449229506752 -0.825577529146 -0.895390175063 0.13802679464539064 -0.1872638672261747 -1.0107764094438152
H 1.501404634777 -0.246089890858 -0.915975480097 -0.35229127628371854 -0.4892839762430894 2.491948485338639
9
Properties=species:S:1:pos:R:3:forces:R:3 energy=-4210.078213318005 pbc="F F F"
C 0.000551874052 -0.518017504494 -0.022640387038 -0.09519769286554569 -1.8161675514917284 1.7544677556138546
C -1.293156073571 0.235367925913 -0.014090087606 -1.5285205076307495 -0.18768294397182075 -1.0028618497257908
O 1.236218646554 0.211930771978 0.000399600133 -0.9230118354714902 -0.8841405299967723 -0.6109223377488686
H -0.102491324007 -1.114600243231 0.911161979771 0.6816168930504851 0.5397541576874308 -0.005429842428869618
H -0.032113117557 -1.377756647485 -0.713701338834 0.4922748569662596 1.0236450079935742 -0.6071356778090156
H -2.066916262362 -0.355026643385 0.521040196407 0.3187798335056455 -0.10776719974580118 -0.9724018377652167
H -1.325717203991 1.084644607809 0.588986076395 0.8399642181656211 1.5908203470813123 1.3227903621493198
H -1.680752151277 0.64393175212 -0.963123375128 0.22781363282699735 -0.7391499143760106 0.07690453453965274
H 0.979119795562 1.120772136184 0.086637985261 -0.013719403685955808 0.5806886216810835 0.04458888803624481
9
Properties=species:S:1:pos:R:3:forces:R:3 energy=-4209.974961110479 pbc="F F F"
C -0.050342025757 -0.564221381448 0.001291895688 1.9499526791911144 -0.9067803351445154 -1.2204881077513545
C -1.294837491634 0.258311335066 0.000840245896 -0.5589648840134693 1.8538843712416349 -1.3540683579397834
O 1.227386458122 0.229267141836 0.048834174064 -2.0525189634496512 -1.8636041490571504 1.9986571493804552
H -0.023795731403 -1.174280708934 0.906784024203 0.31586691302020886 -0.2269167535037139 -0.5310677088816207
H -0.008284295962 -1.19168525735 -0.97474975257 -0.08663786328438834 0.7225153805347357 1.8613225877919177
H -2.205320326686 -0.200694640985 -0.548302119445 1.7537484104210526 0.9810007733650346 0.8110569361131759
H -1.582708917816 0.6410003718 0.95583088909 -0.3737741496534647 -0.6215765695537424 1.0232419076752302
H -0.922444645444 1.251886557634 -0.380786092969 -0.9911879734483897 -0.8890567166690083 -0.7966225294927172
H 1.279862194421 0.677556274002 -0.759197771571 0.043515831217030655 0.9505340039255443 -1.7920318768953027
9
Properties=species:S:1:pos:R:3:forces:R:3 energy=-4209.896076712744 pbc="F F F"
C -0.050413588721 -0.651608335938 -0.037811207296 1.4141766005230672 0.6188536395705527 3.310948953539557
C -1.269326059263 0.298439150891 0.005806468779 1.5779870415849693 0.766150934750813 1.3163811066565634
O 1.212227256479 0.263913550805 0.051614548743 -3.182671767253507 -0.26384987527871023 -2.6138630658609268
H -0.049785682063 -1.207722038765 0.967926767588 0.2819213369084769 0.6901294973606962 -1.5533108971444456
H 0.078088215218 -1.406941243707 -0.818485381082 -0.3253693929243894 0.6327251918768521 -0.1320504545984762
H -2.240170966311 -0.1456712903 0.247332238413 0.3992225120628277 -0.05681001219172081 -0.15465079401384985
H -0.975607887619 1.096777002868 0.826200662519 -0.8232729985829347 -1.6243627509319671 -1.6656090764317013
H -1.286842834049 0.786898393 -0.948560961877 -0.49112555625757115 0.5248434078992305 -0.4238258710041891
H 0.949306796578 0.893284588491 -0.712498730848 1.1491322239390613 -1.2876800279170135 1.9159800937187357
9
Properties=species:S:1:pos:R:3:forces:R:3 energy=-4209.893147016753 pbc="F F F"
C 0.021673757324 -0.674472106672 0.018389680388 -0.6234027743766233 3.229654601394431 -1.3206566226623724
C -1.22545127905 0.274882119266 -0.008781506484 0.687275225625742 0.32542802111981123 1.5363755707017355
O 1.053060253071 0.356783620812 0.036945227724 3.529587857036696 -2.218081852608266 -1.2644240229124248
H 0.111976970155 -1.465832669242 0.738411108414 -0.08177861929192733 0.1093579051437914 0.631266563074372
H 0.006401149669 -1.048646300064 -0.962359077435 0.23995807115900528 -1.2687397446330815 -1.1432271740100253
H -2.185991198725 -0.241389466918 -0.092653251019 0.2159890416453123 0.10891545214597527 0.1861419664243677
H -1.156377956414 0.902702059362 0.944867156992 -0.4942405484870273 -0.8093520832785831 -1.322522493629581
H -1.086577014362 0.968540016619 -0.871398152304 -0.121494028950418 -0.7094995614424362 0.7212356887461407
H 1.930910367381 -0.019939090803 -0.45761823822 -3.3518942192219403 1.2323172570195817 1.975810519128925
9
Properties=species:S:1:pos:R:3:forces:R:3 energy=-4209.899019299555 pbc="F F F"
C -0.052720481238 -0.638579108951 -0.004377717173 1.0382953558908172 0.5702229774950529 -0.6055901935626933
C -1.271104483502 0.274448688781 0.009702209754 -0.29758197672190373 1.856901773142518 0.28131743926037894
O 1.170178303406 0.332682702271 -0.007890921811 -2.0260767223466245 -1.92468449737729 -0.6028235943355685
H 0.114553197683 -1.199580829412 0.949146818208 -0.7393722534180456 0.1906319694358412 -1.0773282755951197
H -0.165883036277 -1.283345701422 -0.923137367474 1.0419982950348623 0.4067806879955033 1.0650647360548702
H -2.293481046539 -0.088207948602 0.273245609509 1.2571408994960702 -0.39402800975709806 0.34296954223956266
H -0.885275376574 1.01104351964 0.738338648072 -1.0970670153934907 0.08079469439043857 -0.12049178434374365
H -1.517591667808 0.868612440448 -0.926077445086 1.094838090521035 -0.9581860137479535 0.7235343980776823
H 1.938656135881 -0.252798857199 -0.049679429045 -0.2721746679239878 0.17156642356176335 -0.006652262656593138
9
Properties=species:S:1:pos:R:3:forces:R:3 energy=-4209.934237884219 pbc="F F F"
C 0.016483481707 0.54887444101 0.001553468675 0.2884763021461621 0.5904413903822955 1.452931425560851
C -1.304965904265 -0.251326460856 6.4475799e-05 -0.009045139897697401 1.8099406502931346 -1.0062227884939792
O 1.182395328032 -0.297921920113 0.053659864411 -0.6781937032559934 0.07682851675592968 -0.2727179589512651
H 0.082462401826 1.235006866233 -0.917933035957 -0.23943184597770845 -0.9099086316423801 1.5513408222552576
H 0.129817619072 1.133070239333 1.000650276831 -0.7638669120160668 -0.39774187905905595 -1.987060493358266
H -2.080761677102 0.375162440366 -0.384641213878 -0.38187460427624825 1.2543488428160312 -0.6535297120000184
H -1.380516615609 -1.02286296776 -0.722365280662 0.6512294147894426 -1.2129105997763674 -0.22706963696775953
H -1.815366568838 -0.455770987288 0.899805196108 0.5750890354928785 -0.9826801276366355 1.5147011908934411
H 1.640632406252 -0.079221347051 -0.746401516283 0.557617452995231 -0.22831816727177112 -0.37237284379948554
9
Properties=species:S:1:pos:R:3:forces:R:3 energy=-4210.228541948853 pbc="F F F"
C 0.007851161817 0.623951424283 -0.003565995411 1.3102294781204384 -1.7211299055317497 0.8767595747297657
C -1.272600895812 -0.270191147225 -0.007069586698 -0.738462655645857 2.2682559074518793 0.3371455409473546
O 1.120156740916 -0.351702538161 -0.000577737271 -0.4096506894969914 0.9289557447583752 -0.5890981731531748
H 0.07300439905 1.340778349148 -0.867897876364 -0.2758283519840584 -0.8625470652173481 0.7829882803186289
H 0.163006972227 1.176762220038 0.958102868135 -0.7913074974014623 -0.1803908122965468 -0.8813856009099952
H -2.027670795043 0.412381444538 0.486873285763 0.21621923786240688 -0.8281125662356597 -0.9646883580091462
H -1.574230875046 -0.534821699769 -1.032805346235 0.08080626689426006 0.2297850026855545 0.5238736505789909
H -1.299941505491 -1.170685361175 0.609711970534 0.8630754332645703 0.25515059497109766 -0.07346795311777812
H 1.947289854599 0.1451965379 -0.01817973827 -0.25508121647461734 -0.08996690058555845 -0.012126961384645824
9
Properties=species:S:1:pos:R:3:forces:R:3 energy=-4210.0944698961075 pbc="F F F"
C -0.057942947552 -0.576366730078 0.014615347166 2.5880500616671958 1.3355186106882648 2.654905510770545
C -1.25202562292 0.273160192157 -0.025982759724 -2.14639925111388 1.1622282026614685 0.0928121280902052
O 1.180230513194 0.301270560162 0.040081525995 -0.6316584968515001 -2.1864626323957683 -0.89004641240608
H -0.172151039667 -1.16187365296 0.972565605936 0.8120248948648711 0.3865695310475759 -0.8791337725519757
H 0.07835085582 -1.258956624561 -0.786646336048 -0.4615353371781678 -0.42761894926430966 -0.7771361596921216
H -2.05339155484 -0.485400386596 0.016906173069 -0.2761041855929784 0.7520421152836477 -0.09338297318742537
H -1.462583814448 1.076720313171 0.773667304061 0.9494342203779264 -1.7430362955420111 -0.677221047671066
H -1.336863204408 0.852571246648 -0.935162898793 -0.014302314608664015 -0.18215155950235665 -0.4521899750822543
H 1.813095387686 -0.194215009625 -0.542102917613 -0.81950958642607 0.9029109821623084 1.0213927017301725
9
Properties=species:S:1:pos:R:3:forces:R:3 energy=-4209.714155042584 pbc="F F F"
C -0.001177443175 0.64384172537 -0.014616038218 -0.28063262658341076 -3.354450622314028 -3.1684467140102197
C -1.264889002644 -0.270376469902 0.015726896189 0.4052867455845469 -1.7403040798064782 -0.838526725112773
O 1.139371291744 -0.339654970421 -0.020900105153 0.8044553673953926 2.6401525468303135 0.9093742923476169
H -0.132346123441 1.12294016281 -1.036413650899 1.0646318719967443 0.18133088809720263 1.5033122695367764
H 0.088376670884 1.261465289282 0.831493643338 -0.12107535816737758 0.990308463158347 0.6041162409563284
H -2.169988210408 0.062316033048 -0.493505483678 0.6083457752728876 0.35634776261360546 -0.9816983199072359
H -1.075986343894 -1.404538017335 -0.277900919133 -0.053825143826212556 2.636726278914279 0.5037465278916836
H -1.677347468874 -0.256460774924 0.963234454612 -0.29271287657388056 -0.5540235482143987 2.4486369920620024
H 1.959478523845 0.158061353971 0.331564995107 -2.134473749959957 -1.1560876944176628 -0.9805145586254463
9
Properties=species:S:1:pos:R:3:forces:R:3 energy=-4209.845553683336 pbc="F F F"
C 0.073538637319 0.600695408186 -0.011222408581 -2.0040798129514754 -0.8272110311892648 0.5592304863368337
C -1.367748744382 -0.26159747357 0.004878498477 1.4580731270332339 2.123640632528828 2.3324322859503805
O 1.175867788671 -0.294679933404 0.052356114677 0.852764835963571 -0.36785869885952743 -1.134534198969783
H -0.136990654624 1.206646838396 -0.922911668945 1.2919995523254495 -0.21905946020774178 0.5443808621849137
H 0.286534403901 1.251498470493 0.915171774682 -1.1733600057994091 -0.803749665629604 -1.5667809113176854
H -2.21023977332 0.489505331434 -0.038283127962 0.832159350573046 -0.8737258726592166 0.33172828849820846
H -1.432591330564 -0.862053413402 -0.864525963736 0.2182624631032421 -0.597357323185751 -0.7921519818540044
H -1.40175995426 -0.900953258676 0.937481939949 -0.16761193662274917 0.7957332349898887 -1.152593430333535
H 1.643110219624 -0.545440594804 -0.782326635749 -1.308207568486133 0.7695881842124325 0.878288604643404
9
Properties=species:S:1:pos:R:3:forces:R:3 energy=-4210.123931136575 pbc="F F F"
C -0.04938918148 0.596332710439 0.018033006053 1.9180776408680384 -0.9441316292421531 -0.878793092839281
C -1.250569961065 -0.291135329718 -0.00092476153 0.6939836087593034 -0.11945813673045028 -2.908795761411687
O 1.144474634552 -0.287627182161 0.045673172742 0.5209912183995734 0.8546244530510387 -1.7203053492185747
H -0.088661991809 1.237310425675 -0.884603179318 0.3904177945290478 -0.20904538519261132 0.6260471223312309
H 0.101438366438 1.14870877986 0.911375075573 -0.5339543805439922 0.9199391044637896 0.5806743153531007